
                                 *****************
                                 * O   R   C   A *
                                 *****************

           --- An Ab Initio, DFT and Semiempirical electronic structure package ---

                  #######################################################
                  #                        -***-                        #
                  #  Department of molecular theory and spectroscopy    #
                  #              Directorship: Frank Neese              #
                  # Max Planck Institute for Chemical Energy Conversion #
                  #                  D-45470 Muelheim/Ruhr              #
                  #                       Germany                       #
                  #                                                     #
                  #                  All rights reserved                #
                  #                        -***-                        #
                  #######################################################


                         Program Version 4.0.1 -  RELEASE  -


 With contributions from (in alphabetic order):
   Daniel Aravena         : Magnetic Properties
   Michael Atanasov       : Ab Initio Ligand Field Theory
   Ute Becker             : Parallelization
   Martin Brehm           : Molecular dynamics
   Dmytro Bykov           : SCF Hessian
   Vijay G. Chilkuri      : MRCI spin determinant printing
   Dipayan Datta          : RHF DLPNO-CCSD density
   Achintya Kumar Dutta   : EOM-CC, STEOM-CC
   Dmitry Ganyushin       : Spin-Orbit,Spin-Spin,Magnetic field MRCI
   Yang Guo               : DLPNO-NEVPT2, CIM, IAO-localization
   Andreas Hansen         : Spin unrestricted coupled pair/coupled cluster methods
   Lee Huntington         : MR-EOM, pCC
   Robert Izsak           : Overlap fitted RIJCOSX, COSX-SCS-MP3, EOM
   Christian Kollmar      : KDIIS, OOCD, Brueckner-CCSD(T), CCSD density
   Simone Kossmann        : Meta GGA functionals, TD-DFT gradient, OOMP2, MP2 Hessian
   Martin Krupicka        : AUTO-CI
   Dagmar Lenk            : GEPOL surface
   Dimitrios Liakos       : Extrapolation schemes; parallel MDCI
   Dimitrios Manganas     : ROCIS; embedding schemes
   Dimitrios Pantazis     : SARC Basis sets
   Taras Petrenko         : DFT Hessian,TD-DFT gradient, ASA, ECA, R-Raman, ABS, FL, XAS/XES, NRVS
   Peter Pinski           : DLPNO-MP2
   Christoph Reimann      : Effective Core Potentials
   Marius Retegan         : Local ZFS, SOC
   Christoph Riplinger    : Optimizer, TS searches, QM/MM, DLPNO-CCSD(T), (RO)-DLPNO pert. Triples
   Tobias Risthaus        : Range-separated hybrids, TD-DFT gradient, RPA, STAB
   Michael Roemelt        : Restricted open shell CIS
   Masaaki Saitow         : Open-shell DLPNO
   Barbara Sandhoefer     : DKH picture change effects
   Kantharuban Sivalingam : CASSCF convergence, NEVPT2, FIC-MRCI
   Georgi Stoychev        : AutoAux
   Boris Wezisla          : Elementary symmetry handling
   Frank Wennmohs         : Technical directorship


 We gratefully acknowledge several colleagues who have allowed us to
 interface, adapt or use parts of their codes:
   Stefan Grimme, W. Hujo, H. Kruse,             : VdW corrections, initial TS optimization,
                  C. Bannwarth                     DFT functionals, gCP, sTDA/sTD-DF
   Ed Valeev                                     : LibInt (2-el integral package), F12 methods
   Garnet Chan, S. Sharma, J. Yang, R. Olivares  : DMRG
   Ulf Ekstrom                                   : XCFun DFT Library
   Mihaly Kallay                                 : mrcc  (arbitrary order and MRCC methods)
   Andreas Klamt, Michael Diedenhofen            : otool_cosmo (COSMO solvation model)
   Jiri Pittner, Ondrej Demel                    : Mk-CCSD
   Frank Weinhold                                : gennbo (NPA and NBO analysis)
   Christopher J. Cramer and Donald G. Truhlar   : smd solvation model


 Your calculation uses the libint2 library for the computation of 2-el integrals
 For citations please refer to: http://libint.valeyev.net

 This ORCA versions uses:
   CBLAS   interface :  Fast vector & matrix operations
   LAPACKE interface :  Fast linear algebra routines
   SCALAPACK package :  Parallel linear algebra routines


Your calculation utilizes the basis: STO-3G
   H-Ne       : W. J. Hehre, R. F. Stewart and J. A. Pople, J. Chem. Phys. 2657 (1969).
   Na-Ar      : W. J. Hehre, R. Ditchfield, R. F. Stewart and J. A. Pople, J. Chem. Phys. 2769 (1970).
   K,Ca,Ga-Kr : W. J. Pietro, B. A. Levy, W. J. Hehre and R. F. Stewart, J. Am. Chem. Soc. 19, 2225 (1980).
   Sc-Zn,Y-Cd : W. J. Pietro and W. J. Hehre, J. Comp. Chem. 4, 241 (1983).

================================================================================
                                        WARNINGS
                       Please study these warnings very carefully!
================================================================================


WARNING: Geometry optimizations can change the point-group symmetry!

Warning: TCutStore was < 0. Adjusted to Thresh (uncritical)

WARNING: Geometry Optimization
  ===> : Switching off AutoStart
         For restart on a previous wavefunction, please use MOREAD

INFO   : the flag for use of LIBINT has been found!

================================================================================
                                       INPUT FILE
================================================================================
NAME = dvb_gopt.in
|  1> ! rks b3lyp sto-3g usesym opt
|  2> 
|  3> %output
|  4>  printlevel normal
|  5>  print[ p_mos ] 1
|  6>  print[ p_overlap ] 1
|  7>  end 
|  8> 
|  9> * xyz 0 1
| 10>  C       -1.4152533224   0.2302217854   0.0000000000
| 11>  C        1.4152533224  -0.2302217854   0.0000000000
| 12>  C       -0.4951331558   1.3144608674   0.0000000000
| 13>  C        0.4951331558  -1.3144608674   0.0000000000
| 14>  C        0.8894090436   1.0909493743   0.0000000000
| 15>  C       -0.8894090436  -1.0909493743   0.0000000000
| 16>  H       -0.8795511985   2.3437343748   0.0000000000
| 17>  H        0.8795511985  -2.3437343748   0.0000000000
| 18>  H        1.5779041557   1.9450061275   0.0000000000
| 19>  H       -1.5779041557  -1.9450061275   0.0000000000
| 20>  C        2.8845844962  -0.5210893778   0.0000000000
| 21>  C       -2.8845844962   0.5210893778   0.0000000000
| 22>  H        3.1403356810  -1.5919605685   0.0000000000
| 23>  H       -3.1403356810   1.5919605685   0.0000000000
| 24>  C        3.8800428103   0.3822535424   0.0000000000
| 25>  C       -3.8800428103  -0.3822535424   0.0000000000
| 26>  H        3.6946765858   1.4624389570   0.0000000000
| 27>  H       -3.6946765858  -1.4624389570   0.0000000000
| 28>  H        4.9316453546   0.0711049543   0.0000000000
| 29>  H       -4.9316453546  -0.0711049543   0.0000000000
| 30> *
| 31> 
| 32>                          ****END OF INPUT****
================================================================================

------------------------------------------------------------------------------
                            SYMMETRY HANDLING SETUP
------------------------------------------------------------------------------

------------------
SYMMETRY DETECTION
------------------
Preparing Data                    ... done
Detection Threshold:    SymThresh ... 1.0000e-04

Point Group will now be determined:
Total Mass                        ...   130.1900 amu
Center of Mass                    ...   0.00000000   0.00000000   0.00000000
Moving molecule to center of mass ... done
Searching for symmetry axes       ...

 #  N FMOD  D1  D2  D3       AX           AY           AZ
 1. 2 ZNOR               -0.00000000   0.00000000   1.00000000

Axis search                       ... found 1 axis
Sorting Axes                      ... done
Point group main block by axes    ... Cn/S2n (rotational) Block
Rotation reflection to main axis  ... no
Reflection perp. to main axis     ... yes

POINT GROUP                       ... C2h

The coordinates will now be cleaned:
Moving to standard coord frame    ... done
(Changed main axis to z and atom 0 to xz plane)
Structure cleanup requested       ... yes
Selected point group              ... C2h
Cleaning Tolerance      SymThresh ... 1.0000e-04

Some missing point group data is constructed:
Constructing symmetry operations  ... done
Creating atom transfer table      ... done
Creating asymmetric unit          ... done

Cleaning asymmetric atoms and generating dependant atoms trough symmetry:

 ASU ... GENERATED (= SYMMETRICALLY EQUIVALENT) ATOMS
   0 ...   1 
   2 ...   3 
   4 ...   5 
   6 ...   7 
   8 ...   9 
  10 ...  11 
  12 ...  13 
  14 ...  15 
  16 ...  17 
  18 ...  19 

----------------------
ASYMMETRIC UNIT IN C2h
----------------------
  #  AT     MASS              COORDS (A.U.)             BAS
   0 C   12.0110   2.70959582  -0.00000000   0.00000000   0
   2 C   12.0110   1.32235614  -2.30151198   0.00000000   0
   4 C   12.0110  -1.32792101  -2.30470981   0.00000000   0
   6 H    1.0080   2.35167487  -4.10468288   0.00000000   0
   8 H    1.0080  -2.35297283  -4.10660479   0.00000000   0
  10 C   12.0110  -5.53845907   0.09670895   0.00000000   0
  12 H    1.0080  -6.34040870   2.01650789   0.00000000   0
  14 C   12.0110  -7.12110704  -1.89025282   0.00000000   0
  16 H    1.0080  -6.44761395  -3.84878071   0.00000000   0
  18 H    1.0080  -9.17697286  -1.62896969   0.00000000   0

-----------------------------------------------
SYMMETRY-PERFECTED CARTESIAN COORDINATES (A.U.)
-----------------------------------------------
   0 C     2.70959582  -0.00000000   0.00000000 
   1 C    -2.70959582   0.00000000   0.00000000 
   2 C     1.32235614  -2.30151198   0.00000000 
   3 C    -1.32235614   2.30151198   0.00000000 
   4 C    -1.32792101  -2.30470981   0.00000000 
   5 C     1.32792101   2.30470981   0.00000000 
   6 H     2.35167487  -4.10468288   0.00000000 
   7 H    -2.35167487   4.10468288   0.00000000 
   8 H    -2.35297283  -4.10660479   0.00000000 
   9 H     2.35297283   4.10660479   0.00000000 
  10 C    -5.53845907   0.09670895   0.00000000 
  11 C     5.53845907  -0.09670895   0.00000000 
  12 H    -6.34040870   2.01650789   0.00000000 
  13 H     6.34040870  -2.01650789   0.00000000 
  14 C    -7.12110704  -1.89025282   0.00000000 
  15 C     7.12110704   1.89025282   0.00000000 
  16 H    -6.44761395  -3.84878071   0.00000000 
  17 H     6.44761395   3.84878071   0.00000000 
  18 H    -9.17697286  -1.62896969   0.00000000 
  19 H     9.17697286   1.62896969   0.00000000 

------------------
SYMMETRY REDUCTION
------------------
ORCA supports only abelian point groups.
It is now checked, if the determined point group is supported:
Point Group ( C2h   ) is          ... supported

(Re)building abelian point group:
Creating Character Table          ... done
Making direct product table       ... done

----------------------------
CHARACTER TABLE OF GROUP C2h
----------------------------
GAMMA  O1   O2   O3   O4  
 Ag :  1.0  1.0  1.0  1.0 
 Bg :  1.0 -1.0  1.0 -1.0 
 Au :  1.0  1.0 -1.0 -1.0 
 Bu :  1.0 -1.0 -1.0  1.0 

---------------------------------
DIRECT PRODUCT TABLE OF GROUP C2h
---------------------------------
   **   Ag  Bg  Au  Bu  

 Ag     Ag  Bg  Au  Bu  
 Bg     Bg  Ag  Bu  Au  
 Au     Au  Bu  Ag  Bg  
 Bu     Bu  Au  Bg  Ag  

-------------------
ATOM TRANSFER TABLE
-------------------
       O01 O02 O03 O04 
   0 :   0   1   1   0 
   1 :   1   0   0   1 
   2 :   2   3   3   2 
   3 :   3   2   2   3 
   4 :   4   5   5   4 
   5 :   5   4   4   5 
   6 :   6   7   7   6 
   7 :   7   6   6   7 
   8 :   8   9   9   8 
   9 :   9   8   8   9 
  10 :  10  11  11  10 
  11 :  11  10  10  11 
  12 :  12  13  13  12 
  13 :  13  12  12  13 
  14 :  14  15  15  14 
  15 :  15  14  14  15 
  16 :  16  17  17  16 
  17 :  17  16  16  17 
  18 :  18  19  19  18 
  19 :  19  18  18  19 

----------------------
ASYMMETRIC UNIT IN C2h
----------------------
  #  AT     MASS              COORDS (A.U.)             BAS
   0 C   12.0110   2.70959582  -0.00000000   0.00000000   0
   2 C   12.0110   1.32235614  -2.30151198   0.00000000   0
   4 C   12.0110  -1.32792101  -2.30470981   0.00000000   0
   6 H    1.0080   2.35167487  -4.10468288   0.00000000   0
   8 H    1.0080  -2.35297283  -4.10660479   0.00000000   0
  10 C   12.0110  -5.53845907   0.09670895   0.00000000   0
  12 H    1.0080  -6.34040870   2.01650789   0.00000000   0
  14 C   12.0110  -7.12110704  -1.89025282   0.00000000   0
  16 H    1.0080  -6.44761395  -3.84878071   0.00000000   0
  18 H    1.0080  -9.17697286  -1.62896969   0.00000000   0

----------------------
SYMMETRY ADAPTED BASIS
----------------------
The coefficients for the symmetry adapted linear combinations (SALCS)
of basis functions will now be computed:
Number of basis functions         ...    60
Preparing memory                  ... done
Constructing Gamma(red)           ... done

Gamma(red) = {   60,    0,    0,   40}

Reducing Gamma(red)               ... done

Gamma(red) = 25 Ag + 5 Bg + 5 Au + 25 Bu 

Constructing SALCs                ... done
Checking SALC integrity           ... nothing suspicious
Normalizing SALCs                 ... done

Storing the symmetry object:
Symmetry file                     ... dvb_gopt.sym.tmp
Writing symmetry information      ... done

                       *****************************
                       * Geometry Optimization Run *
                       *****************************

Geometry optimization settings:
Update method            Update   .... BFGS
Choice of coordinates    CoordSys .... Redundant Internals
Initial Hessian          InHess   .... Almoef's Model

Convergence Tolerances:
Energy Change            TolE     ....  5.0000e-06 Eh
Max. Gradient            TolMAXG  ....  3.0000e-04 Eh/bohr
RMS Gradient             TolRMSG  ....  1.0000e-04 Eh/bohr
Max. Displacement        TolMAXD  ....  4.0000e-03 bohr
RMS Displacement         TolRMSD  ....  2.0000e-03 bohr

------------------------------------------------------------------------------
                        ORCA OPTIMIZATION COORDINATE SETUP
------------------------------------------------------------------------------

The optimization will be done in new redundant internal coordinates
Making redundant internal coordinates   ...  (new redundants) done
Evaluating the initial hessian          ...  (Almloef) done
Evaluating the coordinates              ...  done
Calculating the B-matrix                .... done
Calculating the G-matrix                .... done
Diagonalizing the G-matrix              .... done
Small eigenvalue found = 1.562e-02
The first mode is                       ....   36
The number of degrees of freedom        ....   54

    -----------------------------------------------------------------
                    Redundant Internal Coordinates


    -----------------------------------------------------------------
         Definition                    Initial Value    Approx d2E/dq
    -----------------------------------------------------------------
      1. B(C   2,C   0)                  1.4220         0.555421   
      2. B(C   3,C   1)                  1.4220         0.555421   
      3. B(C   4,C   2)                  1.4025         0.596826   
      4. B(C   4,C   1)                  1.4220         0.555557   
      5. B(C   5,C   0)                  1.4220         0.555557   
      6. B(C   5,C   3)                  1.4025         0.596826   
      7. B(H   6,C   2)                  1.0987         0.348750   
      8. B(H   7,C   3)                  1.0987         0.348750   
      9. B(H   8,C   4)                  1.0970         0.350941   
     10. B(H   9,C   5)                  1.0970         0.350941   
     11. B(C  10,C   1)                  1.4978         0.420416   
     12. B(C  11,C   0)                  1.4978         0.420416   
     13. B(H  12,C  10)                  1.1010         0.345854   
     14. B(H  13,C  11)                  1.1010         0.345854   
     15. B(C  14,C  10)                  1.3442         0.739188   
     16. B(C  15,C  11)                  1.3442         0.739188   
     17. B(H  16,C  14)                  1.0960         0.352282   
     18. B(H  17,C  15)                  1.0960         0.352282   
     19. B(H  18,C  14)                  1.0967         0.351386   
     20. B(H  19,C  15)                  1.0967         0.351386   
     21. A(C   2,C   0,C   5)          117.9778         0.417324   
     22. A(C   2,C   0,C  11)          119.1216         0.397251   
     23. A(C   5,C   0,C  11)          122.9007         0.397268   
     24. A(C   3,C   1,C  10)          119.1216         0.397251   
     25. A(C   4,C   1,C  10)          122.9007         0.397268   
     26. A(C   3,C   1,C   4)          117.9778         0.417324   
     27. A(C   0,C   2,C   4)          121.1487         0.422692   
     28. A(C   0,C   2,H   6)          119.2011         0.344561   
     29. A(C   4,C   2,H   6)          119.6502         0.348754   
     30. A(C   1,C   3,C   5)          121.1487         0.422692   
     31. A(C   5,C   3,H   7)          119.6502         0.348754   
     32. A(C   1,C   3,H   7)          119.2011         0.344561   
     33. A(C   1,C   4,C   2)          120.8736         0.422710   
     34. A(C   1,C   4,H   8)          119.4229         0.344937   
     35. A(C   2,C   4,H   8)          119.7036         0.349122   
     36. A(C   3,C   5,H   9)          119.7036         0.349122   
     37. A(C   0,C   5,C   3)          120.8736         0.422710   
     38. A(C   0,C   5,H   9)          119.4229         0.344937   
     39. A(H  12,C  10,C  14)          118.7905         0.361126   
     40. A(C   1,C  10,C  14)          126.5799         0.417852   
     41. A(C   1,C  10,H  12)          114.6295         0.328497   
     42. A(H  13,C  11,C  15)          118.7905         0.361126   
     43. A(C   0,C  11,C  15)          126.5799         0.417852   
     44. A(C   0,C  11,H  13)          114.6295         0.328497   
     45. A(H  16,C  14,H  18)          116.2199         0.288729   
     46. A(C  10,C  14,H  18)          121.2949         0.362105   
     47. A(C  10,C  14,H  16)          122.4852         0.362263   
     48. A(H  17,C  15,H  19)          116.2199         0.288729   
     49. A(C  11,C  15,H  19)          121.2949         0.362105   
     50. A(C  11,C  15,H  17)          122.4852         0.362263   
     51. D(H   6,C   2,C   0,C  11)      0.0000         0.021118   
     52. D(H   6,C   2,C   0,C   5)    180.0000         0.021118   
     53. D(C   4,C   2,C   0,C   5)      0.0000         0.021118   
     54. D(C   4,C   2,C   0,C  11)    180.0000         0.021118   
     55. D(C   5,C   3,C   1,C  10)    180.0000         0.021118   
     56. D(H   7,C   3,C   1,C  10)      0.0000         0.021118   
     57. D(C   5,C   3,C   1,C   4)      0.0000         0.021118   
     58. D(H   7,C   3,C   1,C   4)    180.0000         0.021118   
     59. D(C   1,C   4,C   2,H   6)    180.0000         0.024542   
     60. D(C   1,C   4,C   2,C   0)      0.0000         0.024542   
     61. D(H   8,C   4,C   1,C  10)      0.0000         0.021129   
     62. D(H   8,C   4,C   1,C   3)    180.0000         0.021129   
     63. D(C   2,C   4,C   1,C  10)    180.0000         0.021129   
     64. D(H   8,C   4,C   2,C   0)    180.0000         0.024542   
     65. D(C   2,C   4,C   1,C   3)      0.0000         0.021129   
     66. D(H   8,C   4,C   2,H   6)      0.0000         0.024542   
     67. D(H   9,C   5,C   3,H   7)      0.0000         0.024542   
     68. D(C   0,C   5,C   3,H   7)    180.0000         0.024542   
     69. D(C   0,C   5,C   3,C   1)      0.0000         0.024542   
     70. D(H   9,C   5,C   0,C  11)      0.0000         0.021129   
     71. D(H   9,C   5,C   0,C   2)    180.0000         0.021129   
     72. D(H   9,C   5,C   3,C   1)    180.0000         0.024542   
     73. D(C   3,C   5,C   0,C  11)    180.0000         0.021129   
     74. D(C   3,C   5,C   0,C   2)      0.0000         0.021129   
     75. D(C  14,C  10,C   1,C   4)      0.0000         0.012096   
     76. D(C  14,C  10,C   1,C   3)    180.0000         0.012096   
     77. D(H  12,C  10,C   1,C   4)    180.0000         0.012096   
     78. D(H  12,C  10,C   1,C   3)      0.0000         0.012096   
     79. D(C  15,C  11,C   0,C   2)    180.0000         0.012096   
     80. D(H  13,C  11,C   0,C   5)    180.0000         0.012096   
     81. D(H  13,C  11,C   0,C   2)      0.0000         0.012096   
     82. D(C  15,C  11,C   0,C   5)      0.0000         0.012096   
     83. D(H  18,C  14,C  10,H  12)      0.0000         0.038859   
     84. D(H  18,C  14,C  10,C   1)    180.0000         0.038859   
     85. D(H  16,C  14,C  10,H  12)    180.0000         0.038859   
     86. D(H  16,C  14,C  10,C   1)      0.0000         0.038859   
     87. D(H  19,C  15,C  11,H  13)      0.0000         0.038859   
     88. D(H  19,C  15,C  11,C   0)    180.0000         0.038859   
     89. D(H  17,C  15,C  11,H  13)    180.0000         0.038859   
     90. D(H  17,C  15,C  11,C   0)      0.0000         0.038859   
    -----------------------------------------------------------------

Number of atoms                         .... 20
Number of degrees of freedom            .... 90

         *************************************************************
         *                GEOMETRY OPTIMIZATION CYCLE   1            *
         *************************************************************
---------------------------------
CARTESIAN COORDINATES (ANGSTROEM)
---------------------------------
  C      1.433856   -0.000000    0.000000
  C     -1.433856    0.000000    0.000000
  C      0.699761   -1.217908    0.000000
  C     -0.699761    1.217908    0.000000
  C     -0.702706   -1.219600    0.000000
  C      0.702706    1.219600    0.000000
  H      1.244453   -2.172105    0.000000
  H     -1.244453    2.172105    0.000000
  H     -1.245140   -2.173122    0.000000
  H      1.245140    2.173122    0.000000
  C     -2.930826    0.051176    0.000000
  C      2.930826   -0.051176    0.000000
  H     -3.355200    1.067090    0.000000
  H      3.355200   -1.067090    0.000000
  C     -3.768328   -1.000279    0.000000
  C      3.768328    1.000279    0.000000
  H     -3.411930   -2.036687    0.000000
  H      3.411930    2.036687    0.000000
  H     -4.856245   -0.862014    0.000000
  H      4.856245    0.862014    0.000000

----------------------------
CARTESIAN COORDINATES (A.U.)
----------------------------
  NO LB      ZA    FRAG     MASS         X           Y           Z
   0 C     6.0000    0    12.011    2.709596   -0.000000    0.000000
   1 C     6.0000    0    12.011   -2.709596    0.000000    0.000000
   2 C     6.0000    0    12.011    1.322356   -2.301512    0.000000
   3 C     6.0000    0    12.011   -1.322356    2.301512    0.000000
   4 C     6.0000    0    12.011   -1.327921   -2.304710    0.000000
   5 C     6.0000    0    12.011    1.327921    2.304710    0.000000
   6 H     1.0000    0     1.008    2.351675   -4.104683    0.000000
   7 H     1.0000    0     1.008   -2.351675    4.104683    0.000000
   8 H     1.0000    0     1.008   -2.352973   -4.106605    0.000000
   9 H     1.0000    0     1.008    2.352973    4.106605    0.000000
  10 C     6.0000    0    12.011   -5.538459    0.096709    0.000000
  11 C     6.0000    0    12.011    5.538459   -0.096709    0.000000
  12 H     1.0000    0     1.008   -6.340409    2.016508    0.000000
  13 H     1.0000    0     1.008    6.340409   -2.016508    0.000000
  14 C     6.0000    0    12.011   -7.121107   -1.890253    0.000000
  15 C     6.0000    0    12.011    7.121107    1.890253    0.000000
  16 H     1.0000    0     1.008   -6.447614   -3.848781    0.000000
  17 H     1.0000    0     1.008    6.447614    3.848781    0.000000
  18 H     1.0000    0     1.008   -9.176973   -1.628970    0.000000
  19 H     1.0000    0     1.008    9.176973    1.628970    0.000000

--------------------------------
INTERNAL COORDINATES (ANGSTROEM)
--------------------------------
 C      0   0   0     0.000000000000     0.00000000     0.00000000
 C      1   0   0     2.867712703209     0.00000000     0.00000000
 C      1   2   0     1.422039207589    58.92046780     0.00000000
 C      2   1   3     1.422039207589    58.92046780   180.00000000
 C      3   1   2     1.402467286416   121.14866524     0.00000000
 C      4   2   1     1.402467286416   121.14866524     0.00000000
 H      3   1   2     1.098717973180   119.20109491   180.00000000
 H      4   2   1     1.098717973180   119.20109491   180.00000000
 H      5   3   1     1.097013426113   119.70357006   180.00000000
 H      6   4   2     1.097013426113   119.70357006   180.00000000
 C      2   1   3     1.497844469432   178.04202002   180.00000000
 C      1   2   3     1.497844469432   178.04202002     0.00000000
 H     11   2   5     1.100987636442   114.62953459   180.00000000
 H     12   1   6     1.100987636442   114.62953459   180.00000000
 C     11   2   5     1.344234237991   126.57992264     0.00000000
 C     12   1   6     1.344234237991   126.57992264     0.00000000
 H     15  11   2     1.095974984705   122.48517186     0.00000000
 H     16  12   1     1.095974984705   122.48517186     0.00000000
 H     15  11   2     1.096668297643   121.29492471   180.00000121
 H     16  12   1     1.096668297643   121.29492471   180.00000121

---------------------------
INTERNAL COORDINATES (A.U.)
---------------------------
 C      0   0   0     0.000000000000     0.00000000     0.00000000
 C      1   0   0     5.419191639833     0.00000000     0.00000000
 C      1   2   0     2.687264654042    58.92046780     0.00000000
 C      2   1   3     2.687264654042    58.92046780   180.00000000
 C      3   1   2     2.650279083110   121.14866524     0.00000000
 C      4   2   1     2.650279083110   121.14866524     0.00000000
 H      3   1   2     2.076276067727   119.20109491   180.00000000
 H      4   2   1     2.076276067727   119.20109491   180.00000000
 H      5   3   1     2.073054940588   119.70357006   180.00000000
 H      6   4   2     2.073054940588   119.70357006   180.00000000
 C      2   1   3     2.830515838436   178.04202002   180.00000000
 C      1   2   3     2.830515838436   178.04202002     0.00000000
 H     11   2   5     2.080565109708   114.62953459   180.00000000
 H     12   1   6     2.080565109708   114.62953459   180.00000000
 C     11   2   5     2.540234569643   126.57992264     0.00000000
 C     12   1   6     2.540234569643   126.57992264     0.00000000
 H     15  11   2     2.071092570722   122.48517186     0.00000000
 H     16  12   1     2.071092570722   122.48517186     0.00000000
 H     15  11   2     2.072402742299   121.29492471   180.00000121
 H     16  12   1     2.072402742299   121.29492471   180.00000121

---------------------
BASIS SET INFORMATION
---------------------
There are 2 groups of distinct atoms

 Group   1 Type C   : 6s3p contracted to 2s1p pattern {33/3}
 Group   2 Type H   : 3s contracted to 1s pattern {3}

Atom   0C    basis set group =>   1
Atom   1C    basis set group =>   1
Atom   2C    basis set group =>   1
Atom   3C    basis set group =>   1
Atom   4C    basis set group =>   1
Atom   5C    basis set group =>   1
Atom   6H    basis set group =>   2
Atom   7H    basis set group =>   2
Atom   8H    basis set group =>   2
Atom   9H    basis set group =>   2
Atom  10C    basis set group =>   1
Atom  11C    basis set group =>   1
Atom  12H    basis set group =>   2
Atom  13H    basis set group =>   2
Atom  14C    basis set group =>   1
Atom  15C    basis set group =>   1
Atom  16H    basis set group =>   2
Atom  17H    basis set group =>   2
Atom  18H    basis set group =>   2
Atom  19H    basis set group =>   2
------------------------------------------------------------------------------
                           ORCA GTO INTEGRAL CALCULATION
------------------------------------------------------------------------------

                         BASIS SET STATISTICS AND STARTUP INFO

 # of primitive gaussian shells          ...  120
 # of primitive gaussian functions       ...  180
 # of contracted shells                  ...   40
 # of contracted basis functions         ...   60
 Highest angular momentum                ...    1
 Maximum contraction depth               ...    3
 Integral package used                   ... LIBINT
 Integral threshhold            Thresh   ...  2.500e-11
 Primitive cut-off              TCut     ...  2.500e-12


------------------------------ INTEGRAL EVALUATION ----------------------------


 * One electron integrals 
 Pre-screening matrix                    ... done
 Shell pair data                         ... done (   0.001 sec)

-------------------------------------------------------------------------------
                                 ORCA SCF
-------------------------------------------------------------------------------

------------
SCF SETTINGS
------------
Hamiltonian:
 Density Functional     Method          .... DFT(GTOs)
 Exchange Functional    Exchange        .... B88
   X-Alpha parameter    XAlpha          ....  0.666667
   Becke's b parameter  XBeta           ....  0.004200
 Correlation Functional Correlation     .... LYP
 LDA part of GGA corr.  LDAOpt          .... VWN-5
 Gradients option       PostSCFGGA      .... off
 Hybrid DFT is turned on
   Fraction HF Exchange ScalHFX         ....  0.200000
   Scaling of DF-GGA-X  ScalDFX         ....  0.720000
   Scaling of DF-GGA-C  ScalDFC         ....  0.810000
   Scaling of DF-LDA-C  ScalLDAC        ....  1.000000
   Perturbative correction              ....  0.000000
   NL short-range parameter             ....  4.800000


General Settings:
 Integral files         IntName         .... dvb_gopt
 Hartree-Fock type      HFTyp           .... RHF
 Total Charge           Charge          ....    0
 Multiplicity           Mult            ....    1
 Number of Electrons    NEL             ....   70
 Basis Dimension        Dim             ....   60
 Nuclear Repulsion      ENuc            ....    445.9369778699 Eh

 Symmetry handling      UseSym         .... ON
 Point group                           .... C2h
 Used point group                      .... C2h
 Number of irreps                      .... 4
   Irrep   Ag has   25 symmetry adapted basis functions (ofs=   0)
   Irrep   Bg has    5 symmetry adapted basis functions (ofs=  25)
   Irrep   Au has    5 symmetry adapted basis functions (ofs=  30)
   Irrep   Bu has   25 symmetry adapted basis functions (ofs=  35)

Convergence Acceleration:
 DIIS                   CNVDIIS         .... on
   Start iteration      DIISMaxIt       ....    12
   Startup error        DIISStart       ....  0.200000
   # of expansion vecs  DIISMaxEq       ....     5
   Bias factor          DIISBfac        ....   1.050
   Max. coefficient     DIISMaxC        ....  10.000
 Newton-Raphson         CNVNR           .... off
 SOSCF                  CNVSOSCF        .... on
   Start iteration      SOSCFMaxIt      ....   150
   Startup grad/error   SOSCFStart      ....  0.003300
 Level Shifting         CNVShift        .... on
   Level shift para.    LevelShift      ....    0.2500
   Turn off err/grad.   ShiftErr        ....    0.0010
 Zerner damping         CNVZerner       .... off
 Static damping         CNVDamp         .... on
   Fraction old density DampFac         ....    0.7000
   Max. Damping (<1)    DampMax         ....    0.9800
   Min. Damping (>=0)   DampMin         ....    0.0000
   Turn off err/grad.   DampErr         ....    0.1000
 Fernandez-Rico         CNVRico         .... off

SCF Procedure:
 Maximum # iterations   MaxIter         ....   125
 SCF integral mode      SCFMode         .... Direct
   Integral package                     .... LIBINT
 Reset frequeny         DirectResetFreq ....    20
 Integral Threshold     Thresh          ....  2.500e-11 Eh
 Primitive CutOff       TCut            ....  2.500e-12 Eh

Convergence Tolerance:
 Convergence Check Mode ConvCheckMode   .... Total+1el-Energy
 Convergence forced     ConvForced      .... 0
 Energy Change          TolE            ....  1.000e-08 Eh
 1-El. energy change                    ....  1.000e-05 Eh
 Orbital Gradient       TolG            ....  1.000e-05
 Orbital Rotation angle TolX            ....  1.000e-05
 DIIS Error             TolErr          ....  5.000e-07


Diagonalization of the overlap matrix:
Smallest eigenvalue                        ... 1.815e-01
Time for diagonalization                   ...    0.001 sec
Threshold for overlap eigenvalues          ... 1.000e-08
Number of eigenvalues below threshold      ... 0
Time for construction of square roots      ...    0.000 sec
Producing symmetrization matrix            ... done (   0.000 sec)
Total time needed                          ...    0.001 sec

--------------
OVERLAP MATRIX
--------------
                  0          1          2          3          4          5    
      0       1.000000   0.248362   0.000000   0.000000  -0.000000   0.000000
      1       0.248362   1.000000   0.000000  -0.000000  -0.000000   0.000303
      2       0.000000   0.000000   1.000000   0.000000   0.000000   0.000000
      3       0.000000  -0.000000   0.000000   1.000000  -0.000000  -0.000826
      4      -0.000000  -0.000000   0.000000  -0.000000   1.000000   0.000000
      5       0.000000   0.000303   0.000000  -0.000826   0.000000   1.000000
      6       0.000303   0.021870   0.000000  -0.035735   0.000000   0.248362
      7       0.000000   0.000000   0.008318   0.000000   0.000000   0.000000
      8       0.000826   0.035735   0.000000  -0.054392   0.000000  -0.000000
      9      -0.000000  -0.000000   0.000000   0.000000   0.008318   0.000000
     10       0.000001   0.035571   0.000000  -0.030464  -0.050542   0.000000
     11       0.035571   0.353710   0.000000  -0.196102  -0.325345   0.001586
     12       0.000000   0.000000   0.204650   0.000000   0.000000   0.000000
     13       0.030464   0.196102   0.000000   0.063005  -0.234997  -0.003224
     14       0.050542   0.325345   0.000000  -0.234997  -0.185224   0.001840
     15       0.000000   0.001586   0.000000  -0.003224   0.001840   0.000001
     16       0.001586   0.056188   0.000000  -0.072514   0.041392   0.035571
     17       0.000000   0.000000   0.023307   0.000000   0.000000   0.000000
     18       0.003224   0.072514   0.000000  -0.079712   0.058805  -0.030464
     19      -0.001840  -0.041392   0.000000   0.058805  -0.010260  -0.050542
     20       0.000000   0.001566   0.000000  -0.003188  -0.001820   0.000001
     21       0.001566   0.055779   0.000000  -0.072046  -0.041125   0.035577
     22       0.000000   0.000000   0.023119   0.000000   0.000000   0.000000
     23       0.003188   0.072046   0.000000  -0.079295  -0.058460  -0.030349
     24       0.001820   0.041125   0.000000  -0.058460  -0.010251   0.050623
     25       0.000001   0.035577   0.000000  -0.030349   0.050623   0.000000
     26       0.035577   0.353743   0.000000  -0.195337   0.325834   0.001566
     27       0.000000   0.000000   0.204675   0.000000   0.000000   0.000000
     28       0.030349   0.195337   0.000000   0.064143   0.234414  -0.003188
     29      -0.050623  -0.325834   0.000000   0.234414  -0.186341  -0.001820
     30       0.005093   0.093008   0.000000  -0.010484  -0.120229   0.000080
     31       0.000080   0.005902   0.000000  -0.007646   0.006201   0.005093
     32       0.000079   0.005884   0.000000  -0.007624  -0.006185   0.005080
     33       0.005080   0.092845   0.000000  -0.010425   0.120049   0.000079
     34       0.000000   0.000000   0.000000  -0.000000   0.000000   0.000000
     35       0.000000   0.000260   0.000000  -0.000575   0.000007   0.029550
     36       0.000000   0.000000   0.000083   0.000000   0.000000   0.000000
     37       0.000000   0.000575   0.000000  -0.001207   0.000015   0.049261
     38      -0.000000  -0.000007   0.000000   0.000015   0.000083  -0.001684
     39       0.000000   0.029550   0.000000   0.049261  -0.001684   0.000000
     40       0.029550   0.317606   0.000000   0.351783  -0.012026   0.000000
     41       0.000000   0.000000   0.177906   0.000000   0.000000   0.000000
     42      -0.049261  -0.351783   0.000000  -0.319315   0.016998  -0.000000
     43       0.001684   0.012026   0.000000   0.016998   0.177325   0.000000
     44       0.000000   0.000082   0.000000  -0.000171   0.000038   0.004869
     45       0.004869   0.090067   0.000000   0.102588  -0.056976   0.000000
     46       0.000000   0.000000   0.000000  -0.000000  -0.000000   0.000000
     47       0.000000   0.000007   0.000000  -0.000019  -0.000004   0.001159
     48       0.000000   0.000000   0.000002   0.000000   0.000000   0.000000
     49       0.000000   0.000019   0.000000  -0.000046  -0.000009   0.002575
     50       0.000000   0.000004   0.000000  -0.000009   0.000000   0.001103
     51       0.000000   0.001159   0.000000   0.002575   0.001103   0.000000
     52       0.001159   0.046884   0.000000   0.065343   0.027998   0.000000
     53       0.000000   0.000000   0.019082   0.000000   0.000000   0.000000
     54      -0.002575  -0.065343   0.000000  -0.080600  -0.042712  -0.000000
     55      -0.001103  -0.027998   0.000000  -0.042712   0.000781  -0.000000
     56       0.000000   0.000024   0.000000  -0.000051  -0.000021   0.000741
     57       0.000741   0.024680   0.000000   0.025702   0.026463   0.000000
     58       0.000000   0.000000   0.000000  -0.000001  -0.000000   0.000058
     59       0.000058   0.004808   0.000000   0.007886   0.001986   0.000000
                  6          7          8          9         10         11    
      0       0.000303   0.000000   0.000826  -0.000000   0.000001   0.035571
      1       0.021870   0.000000   0.035735  -0.000000   0.035571   0.353710
      2       0.000000   0.008318   0.000000   0.000000   0.000000   0.000000
      3      -0.035735   0.000000  -0.054392   0.000000  -0.030464  -0.196102
      4       0.000000   0.000000   0.000000   0.008318  -0.050542  -0.325345
      5       0.248362   0.000000  -0.000000   0.000000   0.000000   0.001586
      6       1.000000   0.000000   0.000000   0.000000   0.001586   0.056188
      7       0.000000   1.000000   0.000000   0.000000   0.000000   0.000000
      8       0.000000   0.000000   1.000000  -0.000000   0.003224   0.072514
      9       0.000000   0.000000  -0.000000   1.000000  -0.001840  -0.041392
     10       0.001586   0.000000   0.003224  -0.001840   1.000000   0.248362
     11       0.056188   0.000000   0.072514  -0.041392   0.248362   1.000000
     12       0.000000   0.023307   0.000000   0.000000   0.000000   0.000000
     13      -0.072514   0.000000  -0.079712   0.058805   0.000000  -0.000000
     14       0.041392   0.000000   0.058805  -0.010260   0.000000   0.000000
     15       0.035571   0.000000   0.030464   0.050542   0.000000   0.000389
     16       0.353710   0.000000   0.196102   0.325345   0.000389   0.025192
     17       0.000000   0.204650   0.000000   0.000000   0.000000   0.000000
     18      -0.196102   0.000000   0.063005  -0.234997   0.000518   0.020246
     19      -0.325345   0.000000  -0.234997  -0.185224  -0.000901  -0.035237
     20       0.035577   0.000000   0.030349  -0.050623   0.000001   0.037289
     21       0.353743   0.000000   0.195337  -0.325834   0.037289   0.363411
     22       0.000000   0.204675   0.000000   0.000000   0.000000   0.000000
     23      -0.195337   0.000000   0.064143   0.234414   0.061829   0.386998
     24       0.325834   0.000000   0.234414  -0.186341   0.000075   0.000467
     25       0.001566   0.000000   0.003188   0.001820   0.000000   0.001704
     26       0.055779   0.000000   0.072046   0.041125   0.001704   0.058556
     27       0.000000   0.023119   0.000000   0.000000   0.000000   0.000000
     28      -0.072046   0.000000  -0.079295  -0.058460  -0.000005  -0.000105
     29      -0.041125   0.000000  -0.058460  -0.010251  -0.003956  -0.086601
     30       0.005902   0.000000   0.007646  -0.006201   0.061021   0.485749
     31       0.093008   0.000000   0.010484   0.120229   0.000011   0.001755
     32       0.092845   0.000000   0.010425  -0.120049   0.005272   0.095346
     33       0.005884   0.000000   0.007624   0.006185   0.000084   0.006109
     34       0.029550   0.000000  -0.049261   0.001684   0.000000   0.000002
     35       0.317606   0.000000  -0.351783   0.012026   0.000002   0.001445
     36       0.000000   0.177906   0.000000   0.000000   0.000000   0.000000
     37       0.351783   0.000000  -0.319315   0.016998   0.000007   0.002724
     38      -0.012026   0.000000   0.016998   0.177325  -0.000003  -0.000952
     39       0.000000   0.000000   0.000000  -0.000000   0.000000   0.001261
     40       0.000260   0.000000   0.000575  -0.000007   0.001261   0.049214
     41       0.000000   0.000083   0.000000   0.000000   0.000000   0.000000
     42      -0.000575   0.000000  -0.001207   0.000015  -0.002678  -0.065778
     43       0.000007   0.000000   0.000015   0.000083  -0.001400  -0.034398
     44       0.090067   0.000000  -0.102588   0.056976   0.000000   0.000188
     45       0.000082   0.000000   0.000171  -0.000038   0.001315   0.036238
     46       0.001159   0.000000  -0.002575  -0.001103   0.000000   0.000000
     47       0.046884   0.000000  -0.065343  -0.027998   0.000000   0.000177
     48       0.000000   0.019082   0.000000   0.000000   0.000000   0.000000
     49       0.065343   0.000000  -0.080600  -0.042712   0.000000   0.000400
     50       0.027998   0.000000  -0.042712   0.000781  -0.000000  -0.000019
     51       0.000000   0.000000   0.000000   0.000000   0.000000   0.000003
     52       0.000007   0.000000   0.000019   0.000004   0.000003   0.001738
     53       0.000000   0.000002   0.000000   0.000000   0.000000   0.000000
     54      -0.000019   0.000000  -0.000046  -0.000009  -0.000009  -0.002780
     55      -0.000004   0.000000  -0.000009   0.000000  -0.000006  -0.002009
     56       0.024680   0.000000  -0.025702  -0.026463   0.000003   0.000779
     57       0.000024   0.000000   0.000051   0.000021   0.000002   0.000684
     58       0.004808   0.000000  -0.007886  -0.001986   0.000000   0.000008
     59       0.000000   0.000000   0.000001   0.000000   0.000000   0.000192
                 12         13         14         15         16         17    
      0       0.000000   0.030464   0.050542   0.000000   0.001586   0.000000
      1       0.000000   0.196102   0.325345   0.001586   0.056188   0.000000
      2       0.204650   0.000000   0.000000   0.000000   0.000000   0.023307
      3       0.000000   0.063005  -0.234997  -0.003224  -0.072514   0.000000
      4       0.000000  -0.234997  -0.185224   0.001840   0.041392   0.000000
      5       0.000000  -0.003224   0.001840   0.000001   0.035571   0.000000
      6       0.000000  -0.072514   0.041392   0.035571   0.353710   0.000000
      7       0.023307   0.000000   0.000000   0.000000   0.000000   0.204650
      8       0.000000  -0.079712   0.058805   0.030464   0.196102   0.000000
      9       0.000000   0.058805  -0.010260   0.050542   0.325345   0.000000
     10       0.000000   0.000000   0.000000   0.000000   0.000389   0.000000
     11       0.000000  -0.000000   0.000000   0.000389   0.025192   0.000000
     12       1.000000   0.000000   0.000000   0.000000   0.000000   0.009690
     13       0.000000   1.000000   0.000000  -0.000518  -0.020246   0.000000
     14       0.000000   0.000000   1.000000   0.000901   0.035237   0.000000
     15       0.000000  -0.000518   0.000901   1.000000   0.248362   0.000000
     16       0.000000  -0.020246   0.035237   0.248362   1.000000   0.000000
     17       0.009690   0.000000   0.000000   0.000000   0.000000   1.000000
     18       0.000000  -0.007838   0.030508  -0.000000   0.000000   0.000000
     19       0.000000   0.030508  -0.043408  -0.000000  -0.000000   0.000000
     20       0.000000  -0.061829  -0.000075   0.000000   0.001704   0.000000
     21       0.000000  -0.386998  -0.000467   0.001704   0.058556   0.000000
     22       0.212075   0.000000   0.000000   0.000000   0.000000   0.024399
     23       0.000000  -0.327830  -0.000651   0.000005   0.000105   0.000000
     24       0.000000  -0.000651   0.212074   0.003956   0.086601   0.000000
     25       0.000000   0.000005   0.003956   0.000001   0.037289   0.000000
     26       0.000000   0.000105   0.086601   0.037289   0.363411   0.000000
     27       0.024399   0.000000   0.000000   0.000000   0.000000   0.212075
     28       0.000000   0.024399  -0.000171  -0.061829  -0.386998   0.000000
     29       0.000000  -0.000171  -0.116791  -0.000075  -0.000467   0.000000
     30       0.000000   0.230161  -0.403198   0.000011   0.001755   0.000000
     31       0.000000  -0.001576   0.002748   0.061021   0.485749   0.000000
     32       0.000000  -0.110696  -0.054367   0.000084   0.006109   0.000000
     33       0.000000   0.001614   0.010037   0.005272   0.095346   0.000000
     34       0.000000  -0.000007   0.000003   0.000000   0.001261   0.000000
     35       0.000000  -0.002724   0.000952   0.001261   0.049214   0.000000
     36       0.000480   0.000000   0.000000   0.000000   0.000000   0.020131
     37       0.000000  -0.004795   0.001844   0.002678   0.065778   0.000000
     38       0.000000   0.001844  -0.000164   0.001400   0.034398   0.000000
     39       0.000000   0.002678   0.001400   0.000000   0.000002   0.000000
     40       0.000000   0.065778   0.034398   0.000002   0.001445   0.000000
     41       0.020131   0.000000   0.000000   0.000000   0.000000   0.000480
     42       0.000000  -0.076239  -0.050396  -0.000007  -0.002724   0.000000
     43       0.000000  -0.050396  -0.006224   0.000003   0.000952   0.000000
     44       0.000000  -0.000337   0.000190   0.001315   0.036238   0.000000
     45       0.000000   0.052183   0.002964   0.000000   0.000188   0.000000
     46       0.000000  -0.000000   0.000000   0.000000   0.000003   0.000000
     47       0.000000  -0.000400   0.000019   0.000003   0.001738   0.000000
     48       0.000057   0.000000   0.000000   0.000000   0.000000   0.000581
     49       0.000000  -0.000857   0.000045   0.000009   0.002780   0.000000
     50       0.000000   0.000045   0.000054   0.000006   0.002009   0.000000
     51       0.000000   0.000009   0.000006   0.000000   0.000000   0.000000
     52       0.000000   0.002780   0.002009   0.000000   0.000177   0.000000
     53       0.000581   0.000000   0.000000   0.000000   0.000000   0.000057
     54       0.000000  -0.003996  -0.003308  -0.000000  -0.000400   0.000000
     55       0.000000  -0.003308  -0.001811   0.000000   0.000019   0.000000
     56       0.000000  -0.001450  -0.000289   0.000002   0.000684   0.000000
     57       0.000000   0.000837   0.001005   0.000003   0.000779   0.000000
     58       0.000000  -0.000018   0.000001   0.000000   0.000192   0.000000
     59       0.000000   0.000352   0.000176   0.000000   0.000008   0.000000
                 18         19         20         21         22         23    
      0       0.003224  -0.001840   0.000000   0.001566   0.000000   0.003188
      1       0.072514  -0.041392   0.001566   0.055779   0.000000   0.072046
      2       0.000000   0.000000   0.000000   0.000000   0.023119   0.000000
      3      -0.079712   0.058805  -0.003188  -0.072046   0.000000  -0.079295
      4       0.058805  -0.010260  -0.001820  -0.041125   0.000000  -0.058460
      5      -0.030464  -0.050542   0.000001   0.035577   0.000000  -0.030349
      6      -0.196102  -0.325345   0.035577   0.353743   0.000000  -0.195337
      7       0.000000   0.000000   0.000000   0.000000   0.204675   0.000000
      8       0.063005  -0.234997   0.030349   0.195337   0.000000   0.064143
      9      -0.234997  -0.185224  -0.050623  -0.325834   0.000000   0.234414
     10       0.000518  -0.000901   0.000001   0.037289   0.000000   0.061829
     11       0.020246  -0.035237   0.037289   0.363411   0.000000   0.386998
     12       0.000000   0.000000   0.000000   0.000000   0.212075   0.000000
     13      -0.007838   0.030508  -0.061829  -0.386998   0.000000  -0.327830
     14       0.030508  -0.043408  -0.000075  -0.000467   0.000000  -0.000651
     15      -0.000000  -0.000000   0.000000   0.001704   0.000000   0.000005
     16       0.000000  -0.000000   0.001704   0.058556   0.000000   0.000105
     17       0.000000   0.000000   0.000000   0.000000   0.024399   0.000000
     18       1.000000   0.000000  -0.000005  -0.000105   0.000000   0.024399
     19       0.000000   1.000000  -0.003956  -0.086601   0.000000  -0.000171
     20      -0.000005  -0.003956   1.000000   0.248362   0.000000   0.000000
     21      -0.000105  -0.086601   0.248362   1.000000   0.000000   0.000000
     22       0.000000   0.000000   0.000000   0.000000   1.000000   0.000000
     23       0.024399  -0.000171   0.000000   0.000000   0.000000   1.000000
     24      -0.000171  -0.116791  -0.000000   0.000000   0.000000   0.000000
     25       0.061829   0.000075   0.000000   0.000380   0.000000   0.000507
     26       0.386998   0.000467   0.000380   0.024839   0.000000   0.020030
     27       0.000000   0.000000   0.000000   0.000000   0.009544   0.000000
     28      -0.327830  -0.000651  -0.000507  -0.020030   0.000000  -0.007852
     29      -0.000651   0.212074  -0.000880  -0.034764   0.000000  -0.030192
     30       0.001576  -0.002748   0.005261   0.095200   0.000000   0.110634
     31      -0.230161   0.403198   0.000084   0.006108   0.000000  -0.001603
     32      -0.001614  -0.010037   0.061264   0.486726   0.000000  -0.229855
     33       0.110696   0.054367   0.000011   0.001735   0.000000   0.001560
     34      -0.002678  -0.001400   0.000000   0.001051   0.000000  -0.002229
     35      -0.065778  -0.034398   0.001051   0.044325   0.000000  -0.058735
     36       0.000000   0.000000   0.000000   0.000000   0.017940   0.000000
     37      -0.076239  -0.050396   0.002229   0.058735   0.000000  -0.067109
     38      -0.050396  -0.006224  -0.001271  -0.033499   0.000000   0.048506
     39       0.000007  -0.000003   0.000000   0.000003   0.000000   0.000009
     40       0.002724  -0.000952   0.000003   0.001582   0.000000   0.002991
     41       0.000000   0.000000   0.000000   0.000000   0.000527   0.000000
     42      -0.004795   0.001844  -0.000009  -0.002991   0.000000  -0.005286
     43       0.001844  -0.000164  -0.000003  -0.000962   0.000000  -0.001869
     44      -0.052183  -0.002964   0.000064   0.005153   0.000000  -0.006571
     45       0.000337  -0.000190   0.000006   0.001141   0.000000   0.002114
     46      -0.000009  -0.000006   0.000000   0.000120   0.000000  -0.000350
     47      -0.002780  -0.002009   0.000120   0.013048   0.000000  -0.022220
     48       0.000000   0.000000   0.000000   0.000000   0.004783   0.000000
     49      -0.003996  -0.003308   0.000350   0.022220   0.000000  -0.035431
     50      -0.003308  -0.001811  -0.000025  -0.001590   0.000000   0.002877
     51       0.000000  -0.000000   0.000000   0.000000   0.000000   0.000000
     52       0.000400  -0.000019   0.000000   0.000025   0.000000   0.000056
     53       0.000000   0.000000   0.000000   0.000000   0.000008   0.000000
     54      -0.000857   0.000045  -0.000000  -0.000056   0.000000  -0.000118
     55       0.000045   0.000054  -0.000000  -0.000028   0.000000  -0.000063
     56      -0.000837  -0.001005   0.000764   0.025192   0.000000  -0.035987
     57       0.001450   0.000289   0.000000   0.000025   0.000000   0.000044
     58      -0.000352  -0.000176   0.000003   0.000835   0.000000  -0.001571
     59       0.000018  -0.000001   0.000000   0.000002   0.000000   0.000004
                 24         25         26         27         28         29    
      0       0.001820   0.000001   0.035577   0.000000   0.030349  -0.050623
      1       0.041125   0.035577   0.353743   0.000000   0.195337  -0.325834
      2       0.000000   0.000000   0.000000   0.204675   0.000000   0.000000
      3      -0.058460  -0.030349  -0.195337   0.000000   0.064143   0.234414
      4      -0.010251   0.050623   0.325834   0.000000   0.234414  -0.186341
      5       0.050623   0.000000   0.001566   0.000000  -0.003188  -0.001820
      6       0.325834   0.001566   0.055779   0.000000  -0.072046  -0.041125
      7       0.000000   0.000000   0.000000   0.023119   0.000000   0.000000
      8       0.234414   0.003188   0.072046   0.000000  -0.079295  -0.058460
      9      -0.186341   0.001820   0.041125   0.000000  -0.058460  -0.010251
     10       0.000075   0.000000   0.001704   0.000000  -0.000005  -0.003956
     11       0.000467   0.001704   0.058556   0.000000  -0.000105  -0.086601
     12       0.000000   0.000000   0.000000   0.024399   0.000000   0.000000
     13      -0.000651   0.000005   0.000105   0.000000   0.024399  -0.000171
     14       0.212074   0.003956   0.086601   0.000000  -0.000171  -0.116791
     15       0.003956   0.000001   0.037289   0.000000  -0.061829  -0.000075
     16       0.086601   0.037289   0.363411   0.000000  -0.386998  -0.000467
     17       0.000000   0.000000   0.000000   0.212075   0.000000   0.000000
     18      -0.000171   0.061829   0.386998   0.000000  -0.327830  -0.000651
     19      -0.116791   0.000075   0.000467   0.000000  -0.000651   0.212074
     20      -0.000000   0.000000   0.000380   0.000000  -0.000507  -0.000880
     21       0.000000   0.000380   0.024839   0.000000  -0.020030  -0.034764
     22       0.000000   0.000000   0.000000   0.009544   0.000000   0.000000
     23       0.000000   0.000507   0.020030   0.000000  -0.007852  -0.030192
     24       1.000000   0.000880   0.034764   0.000000  -0.030192  -0.042857
     25       0.000880   1.000000   0.248362   0.000000  -0.000000   0.000000
     26       0.034764   0.248362   1.000000   0.000000  -0.000000   0.000000
     27       0.000000   0.000000   0.000000   1.000000   0.000000   0.000000
     28      -0.030192  -0.000000  -0.000000   0.000000   1.000000   0.000000
     29      -0.042857   0.000000   0.000000   0.000000   0.000000   1.000000
     30      -0.054120   0.000084   0.006108   0.000000   0.001603  -0.010037
     31       0.010037   0.005261   0.095200   0.000000  -0.110634   0.054120
     32      -0.404052   0.000011   0.001735   0.000000  -0.001560  -0.002717
     33       0.002717   0.061264   0.486726   0.000000   0.229855   0.404052
     34       0.001271   0.000000   0.000003   0.000000  -0.000009  -0.000003
     35       0.033499   0.000003   0.001582   0.000000  -0.002991  -0.000962
     36       0.000000   0.000000   0.000000   0.000527   0.000000   0.000000
     37       0.048506   0.000009   0.002991   0.000000  -0.005286  -0.001869
     38      -0.009725   0.000003   0.000962   0.000000  -0.001869  -0.000074
     39       0.000003   0.000000   0.001051   0.000000   0.002229  -0.001271
     40       0.000962   0.001051   0.044325   0.000000   0.058735  -0.033499
     41       0.000000   0.000000   0.000000   0.017940   0.000000   0.000000
     42      -0.001869  -0.002229  -0.058735   0.000000  -0.067109   0.048506
     43      -0.000074   0.001271   0.033499   0.000000   0.048506  -0.009725
     44       0.005664   0.000006   0.001141   0.000000  -0.002114  -0.000079
     45       0.000079   0.000064   0.005153   0.000000   0.006571  -0.005664
     46       0.000025   0.000000   0.000000   0.000000  -0.000000  -0.000000
     47       0.001590   0.000000   0.000025   0.000000  -0.000056  -0.000028
     48       0.000000   0.000000   0.000000   0.000008   0.000000   0.000000
     49       0.002877   0.000000   0.000056   0.000000  -0.000118  -0.000063
     50       0.004577   0.000000   0.000028   0.000000  -0.000063  -0.000023
     51       0.000000   0.000000   0.000120   0.000000   0.000350  -0.000025
     52       0.000028   0.000120   0.013048   0.000000   0.022220  -0.001590
     53       0.000000   0.000000   0.000000   0.004783   0.000000   0.000000
     54      -0.000063  -0.000350  -0.022220   0.000000  -0.035431   0.002877
     55      -0.000023   0.000025   0.001590   0.000000   0.002877   0.004577
     56      -0.010853   0.000000   0.000025   0.000000  -0.000044  -0.000035
     57       0.000035   0.000764   0.025192   0.000000   0.035987   0.010853
     58       0.000135   0.000000   0.000002   0.000000  -0.000004  -0.000002
     59       0.000002   0.000003   0.000835   0.000000   0.001571  -0.000135
                 30         31         32         33         34         35    
      0       0.005093   0.000080   0.000079   0.005080   0.000000   0.000000
      1       0.093008   0.005902   0.005884   0.092845   0.000000   0.000260
      2       0.000000   0.000000   0.000000   0.000000   0.000000   0.000000
      3      -0.010484  -0.007646  -0.007624  -0.010425  -0.000000  -0.000575
      4      -0.120229   0.006201  -0.006185   0.120049   0.000000   0.000007
      5       0.000080   0.005093   0.005080   0.000079   0.000000   0.029550
      6       0.005902   0.093008   0.092845   0.005884   0.029550   0.317606
      7       0.000000   0.000000   0.000000   0.000000   0.000000   0.000000
      8       0.007646   0.010484   0.010425   0.007624  -0.049261  -0.351783
      9      -0.006201   0.120229  -0.120049   0.006185   0.001684   0.012026
     10       0.061021   0.000011   0.005272   0.000084   0.000000   0.000002
     11       0.485749   0.001755   0.095346   0.006109   0.000002   0.001445
     12       0.000000   0.000000   0.000000   0.000000   0.000000   0.000000
     13       0.230161  -0.001576  -0.110696   0.001614  -0.000007  -0.002724
     14      -0.403198   0.002748  -0.054367   0.010037   0.000003   0.000952
     15       0.000011   0.061021   0.000084   0.005272   0.000000   0.001261
     16       0.001755   0.485749   0.006109   0.095346   0.001261   0.049214
     17       0.000000   0.000000   0.000000   0.000000   0.000000   0.000000
     18       0.001576  -0.230161  -0.001614   0.110696  -0.002678  -0.065778
     19      -0.002748   0.403198  -0.010037   0.054367  -0.001400  -0.034398
     20       0.005261   0.000084   0.061264   0.000011   0.000000   0.001051
     21       0.095200   0.006108   0.486726   0.001735   0.001051   0.044325
     22       0.000000   0.000000   0.000000   0.000000   0.000000   0.000000
     23       0.110634  -0.001603  -0.229855   0.001560  -0.002229  -0.058735
     24      -0.054120   0.010037  -0.404052   0.002717   0.001271   0.033499
     25       0.000084   0.005261   0.000011   0.061264   0.000000   0.000003
     26       0.006108   0.095200   0.001735   0.486726   0.000003   0.001582
     27       0.000000   0.000000   0.000000   0.000000   0.000000   0.000000
     28       0.001603  -0.110634  -0.001560   0.229855  -0.000009  -0.002991
     29      -0.010037   0.054120  -0.002717   0.404052  -0.000003  -0.000962
     30       1.000000   0.000106   0.050494   0.000712   0.000000   0.000147
     31       0.000106   1.000000   0.000712   0.050494   0.001125   0.032620
     32       0.050494   0.000712   1.000000   0.000105   0.000868   0.027412
     33       0.000712   0.050494   0.000105   1.000000   0.000000   0.000170
     34       0.000000   0.001125   0.000868   0.000000   1.000000   0.248362
     35       0.000147   0.032620   0.027412   0.000170   0.248362   1.000000
     36       0.000000   0.000000   0.000000   0.000000   0.000000   0.000000
     37       0.000270   0.029580   0.024517   0.000314   0.000000  -0.000000
     38      -0.000144   0.037202  -0.032351   0.000160  -0.000000   0.000000
     39       0.001125   0.000000   0.000000   0.000868   0.000000   0.000000
     40       0.032620   0.000147   0.000170   0.027412   0.000000   0.000001
     41       0.000000   0.000000   0.000000   0.000000   0.000000   0.000000
     42      -0.029580  -0.000270  -0.000314  -0.024517   0.000000  -0.000002
     43      -0.037202   0.000144  -0.000160   0.032351   0.000000   0.000000
     44       0.000014   0.061526   0.002479   0.000240   0.060698   0.484450
     45       0.061526   0.000014   0.000240   0.002479   0.000000   0.000000
     46       0.000000   0.000006   0.000892   0.000000   0.000002   0.042836
     47       0.000035   0.001164   0.027916   0.000002   0.042836   0.393154
     48       0.000000   0.000000   0.000000   0.000000   0.000000   0.000000
     49       0.000077   0.001342   0.037424   0.000004   0.044258   0.254088
     50      -0.000018   0.001686  -0.017396   0.000002   0.055564   0.319000
     51       0.000006   0.000000   0.000000   0.000892   0.000000   0.000000
     52       0.001164   0.000035   0.000002   0.027916   0.000000   0.000000
     53       0.000000   0.000000   0.000000   0.000000   0.000000   0.000000
     54      -0.001342  -0.000077  -0.000004  -0.037424   0.000000  -0.000000
     55      -0.001686   0.000018  -0.000002   0.017396   0.000000  -0.000000
     56       0.000297   0.000238   0.089436   0.000001   0.005606   0.099656
     57       0.000238   0.000297   0.000001   0.089436   0.000000   0.000000
     58       0.000002   0.000251   0.002637   0.000000   0.005772   0.101772
     59       0.000251   0.000002   0.000000   0.002637   0.000000   0.000000
                 36         37         38         39         40         41    
      0       0.000000   0.000000  -0.000000   0.000000   0.029550   0.000000
      1       0.000000   0.000575  -0.000007   0.029550   0.317606   0.000000
      2       0.000083   0.000000   0.000000   0.000000   0.000000   0.177906
      3       0.000000  -0.001207   0.000015   0.049261   0.351783   0.000000
      4       0.000000   0.000015   0.000083  -0.001684  -0.012026   0.000000
      5       0.000000   0.049261  -0.001684   0.000000   0.000000   0.000000
      6       0.000000   0.351783  -0.012026   0.000000   0.000260   0.000000
      7       0.177906   0.000000   0.000000   0.000000   0.000000   0.000083
      8       0.000000  -0.319315   0.016998   0.000000   0.000575   0.000000
      9       0.000000   0.016998   0.177325  -0.000000  -0.000007   0.000000
     10       0.000000   0.000007  -0.000003   0.000000   0.001261   0.000000
     11       0.000000   0.002724  -0.000952   0.001261   0.049214   0.000000
     12       0.000480   0.000000   0.000000   0.000000   0.000000   0.020131
     13       0.000000  -0.004795   0.001844   0.002678   0.065778   0.000000
     14       0.000000   0.001844  -0.000164   0.001400   0.034398   0.000000
     15       0.000000   0.002678   0.001400   0.000000   0.000002   0.000000
     16       0.000000   0.065778   0.034398   0.000002   0.001445   0.000000
     17       0.020131   0.000000   0.000000   0.000000   0.000000   0.000480
     18       0.000000  -0.076239  -0.050396   0.000007   0.002724   0.000000
     19       0.000000  -0.050396  -0.006224  -0.000003  -0.000952   0.000000
     20       0.000000   0.002229  -0.001271   0.000000   0.000003   0.000000
     21       0.000000   0.058735  -0.033499   0.000003   0.001582   0.000000
     22       0.017940   0.000000   0.000000   0.000000   0.000000   0.000527
     23       0.000000  -0.067109   0.048506   0.000009   0.002991   0.000000
     24       0.000000   0.048506  -0.009725   0.000003   0.000962   0.000000
     25       0.000000   0.000009   0.000003   0.000000   0.001051   0.000000
     26       0.000000   0.002991   0.000962   0.001051   0.044325   0.000000
     27       0.000527   0.000000   0.000000   0.000000   0.000000   0.017940
     28       0.000000  -0.005286  -0.001869   0.002229   0.058735   0.000000
     29       0.000000  -0.001869  -0.000074  -0.001271  -0.033499   0.000000
     30       0.000000   0.000270  -0.000144   0.001125   0.032620   0.000000
     31       0.000000   0.029580   0.037202   0.000000   0.000147   0.000000
     32       0.000000   0.024517  -0.032351   0.000000   0.000170   0.000000
     33       0.000000   0.000314   0.000160   0.000868   0.027412   0.000000
     34       0.000000   0.000000  -0.000000   0.000000   0.000000   0.000000
     35       0.000000  -0.000000   0.000000   0.000000   0.000001   0.000000
     36       1.000000   0.000000   0.000000   0.000000   0.000000   0.000000
     37       0.000000   1.000000   0.000000   0.000000   0.000002   0.000000
     38       0.000000   0.000000   1.000000   0.000000  -0.000000   0.000000
     39       0.000000   0.000000   0.000000   1.000000   0.248362   0.000000
     40       0.000000   0.000002  -0.000000   0.248362   1.000000   0.000000
     41       0.000000   0.000000   0.000000   0.000000   0.000000   1.000000
     42       0.000000  -0.000005   0.000000  -0.000000   0.000000   0.000000
     43       0.000000   0.000000   0.000000   0.000000   0.000000   0.000000
     44       0.000000  -0.178646   0.427663   0.000000   0.000000   0.000000
     45       0.000000   0.000001  -0.000000   0.060698   0.484450   0.000000
     46       0.000000  -0.044258  -0.055564   0.000000   0.000000   0.000000
     47       0.000000  -0.254088  -0.319000   0.000000   0.000000   0.000000
     48       0.235487   0.000000   0.000000   0.000000   0.000000   0.000000
     49       0.000000   0.016653  -0.274738   0.000000   0.000000   0.000000
     50       0.000000  -0.274738  -0.109438   0.000000   0.000000   0.000000
     51       0.000000   0.000000   0.000000   0.000002   0.042836   0.000000
     52       0.000000   0.000000   0.000000   0.042836   0.393154   0.000000
     53       0.000000   0.000000   0.000000   0.000000   0.000000   0.235487
     54       0.000000  -0.000000  -0.000000  -0.044258  -0.254088   0.000000
     55       0.000000  -0.000000   0.000000  -0.055564  -0.319000   0.000000
     56       0.000000  -0.028779  -0.124892   0.000000   0.000000   0.000000
     57       0.000000   0.000000   0.000000   0.005606   0.099656   0.000000
     58       0.000000  -0.117935  -0.055934   0.000000   0.000000   0.000000
     59       0.000000   0.000000   0.000000   0.005772   0.101772   0.000000
                 42         43         44         45         46         47    
      0      -0.049261   0.001684   0.000000   0.004869   0.000000   0.000000
      1      -0.351783   0.012026   0.000082   0.090067   0.000000   0.000007
      2       0.000000   0.000000   0.000000   0.000000   0.000000   0.000000
      3      -0.319315   0.016998  -0.000171   0.102588  -0.000000  -0.000019
      4       0.016998   0.177325   0.000038  -0.056976  -0.000000  -0.000004
      5      -0.000000   0.000000   0.004869   0.000000   0.000000   0.001159
      6      -0.000575   0.000007   0.090067   0.000082   0.001159   0.046884
      7       0.000000   0.000000   0.000000   0.000000   0.000000   0.000000
      8      -0.001207   0.000015  -0.102588   0.000171  -0.002575  -0.065343
      9       0.000015   0.000083   0.056976  -0.000038  -0.001103  -0.027998
     10      -0.002678  -0.001400   0.000000   0.001315   0.000000   0.000000
     11      -0.065778  -0.034398   0.000188   0.036238   0.000000   0.000177
     12       0.000000   0.000000   0.000000   0.000000   0.000000   0.000000
     13      -0.076239  -0.050396  -0.000337   0.052183  -0.000000  -0.000400
     14      -0.050396  -0.006224   0.000190   0.002964   0.000000   0.000019
     15      -0.000007   0.000003   0.001315   0.000000   0.000000   0.000003
     16      -0.002724   0.000952   0.036238   0.000188   0.000003   0.001738
     17       0.000000   0.000000   0.000000   0.000000   0.000000   0.000000
     18      -0.004795   0.001844  -0.052183   0.000337  -0.000009  -0.002780
     19       0.001844  -0.000164  -0.002964  -0.000190  -0.000006  -0.002009
     20      -0.000009  -0.000003   0.000064   0.000006   0.000000   0.000120
     21      -0.002991  -0.000962   0.005153   0.001141   0.000120   0.013048
     22       0.000000   0.000000   0.000000   0.000000   0.000000   0.000000
     23      -0.005286  -0.001869  -0.006571   0.002114  -0.000350  -0.022220
     24      -0.001869  -0.000074   0.005664   0.000079   0.000025   0.001590
     25      -0.002229   0.001271   0.000006   0.000064   0.000000   0.000000
     26      -0.058735   0.033499   0.001141   0.005153   0.000000   0.000025
     27       0.000000   0.000000   0.000000   0.000000   0.000000   0.000000
     28      -0.067109   0.048506  -0.002114   0.006571  -0.000000  -0.000056
     29       0.048506  -0.009725  -0.000079  -0.005664  -0.000000  -0.000028
     30      -0.029580  -0.037202   0.000014   0.061526   0.000000   0.000035
     31      -0.000270   0.000144   0.061526   0.000014   0.000006   0.001164
     32      -0.000314  -0.000160   0.002479   0.000240   0.000892   0.027916
     33      -0.024517   0.032351   0.000240   0.002479   0.000000   0.000002
     34       0.000000   0.000000   0.060698   0.000000   0.000002   0.042836
     35      -0.000002   0.000000   0.484450   0.000000   0.042836   0.393154
     36       0.000000   0.000000   0.000000   0.000000   0.000000   0.000000
     37      -0.000005   0.000000  -0.178646   0.000001  -0.044258  -0.254088
     38       0.000000   0.000000   0.427663  -0.000000  -0.055564  -0.319000
     39      -0.000000   0.000000   0.000000   0.060698   0.000000   0.000000
     40       0.000000   0.000000   0.000000   0.484450   0.000000   0.000000
     41       0.000000   0.000000   0.000000   0.000000   0.000000   0.000000
     42       1.000000   0.000000  -0.000001   0.178646   0.000000  -0.000000
     43       0.000000   1.000000   0.000000  -0.427663   0.000000  -0.000000
     44      -0.000001   0.000000   1.000000   0.000000   0.006110   0.106040
     45       0.178646  -0.427663   0.000000   1.000000   0.000000   0.000000
     46       0.000000   0.000000   0.006110   0.000000   1.000000   0.248362
     47      -0.000000  -0.000000   0.106040   0.000000   0.248362   1.000000
     48       0.000000   0.000000   0.000000   0.000000   0.000000   0.000000
     49      -0.000000  -0.000000   0.026507   0.000000  -0.000000   0.000000
     50      -0.000000   0.000000   0.132645  -0.000000  -0.000000   0.000000
     51       0.044258   0.055564   0.000000   0.006110   0.000000   0.000000
     52       0.254088   0.319000   0.000000   0.106040   0.000000   0.000000
     53       0.000000   0.000000   0.000000   0.000000   0.000000   0.000000
     54       0.016653  -0.274738  -0.000000  -0.026507   0.000000  -0.000000
     55      -0.274738  -0.109438   0.000000  -0.132645   0.000000  -0.000000
     56      -0.000000  -0.000000   0.014616   0.000000   0.061413   0.487322
     57       0.028779   0.124892   0.000000   0.014616   0.000000   0.000000
     58      -0.000000  -0.000000   0.054933   0.000000   0.061313   0.486924
     59       0.117935   0.055934   0.000000   0.054933   0.000000   0.000000
                 48         49         50         51         52         53    
      0       0.000000   0.000000   0.000000   0.000000   0.001159   0.000000
      1       0.000000   0.000019   0.000004   0.001159   0.046884   0.000000
      2       0.000002   0.000000   0.000000   0.000000   0.000000   0.019082
      3       0.000000  -0.000046  -0.000009   0.002575   0.065343   0.000000
      4       0.000000  -0.000009   0.000000   0.001103   0.027998   0.000000
      5       0.000000   0.002575   0.001103   0.000000   0.000000   0.000000
      6       0.000000   0.065343   0.027998   0.000000   0.000007   0.000000
      7       0.019082   0.000000   0.000000   0.000000   0.000000   0.000002
      8       0.000000  -0.080600  -0.042712   0.000000   0.000019   0.000000
      9       0.000000  -0.042712   0.000781   0.000000   0.000004   0.000000
     10       0.000000   0.000000  -0.000000   0.000000   0.000003   0.000000
     11       0.000000   0.000400  -0.000019   0.000003   0.001738   0.000000
     12       0.000057   0.000000   0.000000   0.000000   0.000000   0.000581
     13       0.000000  -0.000857   0.000045   0.000009   0.002780   0.000000
     14       0.000000   0.000045   0.000054   0.000006   0.002009   0.000000
     15       0.000000   0.000009   0.000006   0.000000   0.000000   0.000000
     16       0.000000   0.002780   0.002009   0.000000   0.000177   0.000000
     17       0.000581   0.000000   0.000000   0.000000   0.000000   0.000057
     18       0.000000  -0.003996  -0.003308   0.000000   0.000400   0.000000
     19       0.000000  -0.003308  -0.001811  -0.000000  -0.000019   0.000000
     20       0.000000   0.000350  -0.000025   0.000000   0.000000   0.000000
     21       0.000000   0.022220  -0.001590   0.000000   0.000025   0.000000
     22       0.004783   0.000000   0.000000   0.000000   0.000000   0.000008
     23       0.000000  -0.035431   0.002877   0.000000   0.000056   0.000000
     24       0.000000   0.002877   0.004577   0.000000   0.000028   0.000000
     25       0.000000   0.000000   0.000000   0.000000   0.000120   0.000000
     26       0.000000   0.000056   0.000028   0.000120   0.013048   0.000000
     27       0.000008   0.000000   0.000000   0.000000   0.000000   0.004783
     28       0.000000  -0.000118  -0.000063   0.000350   0.022220   0.000000
     29       0.000000  -0.000063  -0.000023  -0.000025  -0.001590   0.000000
     30       0.000000   0.000077  -0.000018   0.000006   0.001164   0.000000
     31       0.000000   0.001342   0.001686   0.000000   0.000035   0.000000
     32       0.000000   0.037424  -0.017396   0.000000   0.000002   0.000000
     33       0.000000   0.000004   0.000002   0.000892   0.027916   0.000000
     34       0.000000   0.044258   0.055564   0.000000   0.000000   0.000000
     35       0.000000   0.254088   0.319000   0.000000   0.000000   0.000000
     36       0.235487   0.000000   0.000000   0.000000   0.000000   0.000000
     37       0.000000   0.016653  -0.274738   0.000000   0.000000   0.000000
     38       0.000000  -0.274738  -0.109438   0.000000   0.000000   0.000000
     39       0.000000   0.000000   0.000000   0.000002   0.042836   0.000000
     40       0.000000   0.000000   0.000000   0.042836   0.393154   0.000000
     41       0.000000   0.000000   0.000000   0.000000   0.000000   0.235487
     42       0.000000  -0.000000  -0.000000   0.044258   0.254088   0.000000
     43       0.000000  -0.000000   0.000000   0.055564   0.319000   0.000000
     44       0.000000   0.026507   0.132645   0.000000   0.000000   0.000000
     45       0.000000   0.000000  -0.000000   0.006110   0.106040   0.000000
     46       0.000000  -0.000000  -0.000000   0.000000   0.000000   0.000000
     47       0.000000   0.000000   0.000000   0.000000   0.000000   0.000000
     48       1.000000   0.000000   0.000000   0.000000   0.000000   0.000000
     49       0.000000   1.000000   0.000000   0.000000   0.000000   0.000000
     50       0.000000   0.000000   1.000000   0.000000   0.000000   0.000000
     51       0.000000   0.000000   0.000000   1.000000   0.248362   0.000000
     52       0.000000   0.000000   0.000000   0.248362   1.000000   0.000000
     53       0.000000   0.000000   0.000000   0.000000   0.000000   1.000000
     54       0.000000  -0.000000  -0.000000   0.000000  -0.000000   0.000000
     55       0.000000  -0.000000  -0.000000   0.000000  -0.000000   0.000000
     56       0.000000   0.151282  -0.439931   0.000000   0.000000   0.000000
     57       0.000000   0.000000   0.000000   0.061413   0.487322   0.000000
     58       0.000000  -0.461265   0.058623   0.000000   0.000000   0.000000
     59       0.000000   0.000000   0.000000   0.061313   0.486924   0.000000
                 54         55         56         57         58         59    
      0      -0.002575  -0.001103   0.000000   0.000741   0.000000   0.000058
      1      -0.065343  -0.027998   0.000024   0.024680   0.000000   0.004808
      2       0.000000   0.000000   0.000000   0.000000   0.000000   0.000000
      3      -0.080600  -0.042712  -0.000051   0.025702  -0.000001   0.007886
      4      -0.042712   0.000781  -0.000021   0.026463  -0.000000   0.001986
      5      -0.000000  -0.000000   0.000741   0.000000   0.000058   0.000000
      6      -0.000019  -0.000004   0.024680   0.000024   0.004808   0.000000
      7       0.000000   0.000000   0.000000   0.000000   0.000000   0.000000
      8      -0.000046  -0.000009  -0.025702   0.000051  -0.007886   0.000001
      9      -0.000009   0.000000  -0.026463   0.000021  -0.001986   0.000000
     10      -0.000009  -0.000006   0.000003   0.000002   0.000000   0.000000
     11      -0.002780  -0.002009   0.000779   0.000684   0.000008   0.000192
     12       0.000000   0.000000   0.000000   0.000000   0.000000   0.000000
     13      -0.003996  -0.003308  -0.001450   0.000837  -0.000018   0.000352
     14      -0.003308  -0.001811  -0.000289   0.001005   0.000001   0.000176
     15      -0.000000   0.000000   0.000002   0.000003   0.000000   0.000000
     16      -0.000400   0.000019   0.000684   0.000779   0.000192   0.000008
     17       0.000000   0.000000   0.000000   0.000000   0.000000   0.000000
     18      -0.000857   0.000045  -0.000837   0.001450  -0.000352   0.000018
     19       0.000045   0.000054  -0.001005   0.000289  -0.000176  -0.000001
     20      -0.000000  -0.000000   0.000764   0.000000   0.000003   0.000000
     21      -0.000056  -0.000028   0.025192   0.000025   0.000835   0.000002
     22       0.000000   0.000000   0.000000   0.000000   0.000000   0.000000
     23      -0.000118  -0.000063  -0.035987   0.000044  -0.001571   0.000004
     24      -0.000063  -0.000023  -0.010853   0.000035   0.000135   0.000002
     25      -0.000350   0.000025   0.000000   0.000764   0.000000   0.000003
     26      -0.022220   0.001590   0.000025   0.025192   0.000002   0.000835
     27       0.000000   0.000000   0.000000   0.000000   0.000000   0.000000
     28      -0.035431   0.002877  -0.000044   0.035987  -0.000004   0.001571
     29       0.002877   0.004577  -0.000035   0.010853  -0.000002  -0.000135
     30      -0.001342  -0.001686   0.000297   0.000238   0.000002   0.000251
     31      -0.000077   0.000018   0.000238   0.000297   0.000251   0.000002
     32      -0.000004  -0.000002   0.089436   0.000001   0.002637   0.000000
     33      -0.037424   0.017396   0.000001   0.089436   0.000000   0.002637
     34       0.000000   0.000000   0.005606   0.000000   0.005772   0.000000
     35      -0.000000  -0.000000   0.099656   0.000000   0.101772   0.000000
     36       0.000000   0.000000   0.000000   0.000000   0.000000   0.000000
     37      -0.000000  -0.000000  -0.028779   0.000000  -0.117935   0.000000
     38      -0.000000   0.000000  -0.124892   0.000000  -0.055934   0.000000
     39      -0.044258  -0.055564   0.000000   0.005606   0.000000   0.005772
     40      -0.254088  -0.319000   0.000000   0.099656   0.000000   0.101772
     41       0.000000   0.000000   0.000000   0.000000   0.000000   0.000000
     42       0.016653  -0.274738  -0.000000   0.028779  -0.000000   0.117935
     43      -0.274738  -0.109438  -0.000000   0.124892  -0.000000   0.055934
     44      -0.000000   0.000000   0.014616   0.000000   0.054933   0.000000
     45      -0.026507  -0.132645   0.000000   0.014616   0.000000   0.054933
     46       0.000000   0.000000   0.061413   0.000000   0.061313   0.000000
     47      -0.000000  -0.000000   0.487322   0.000000   0.486924   0.000000
     48       0.000000   0.000000   0.000000   0.000000   0.000000   0.000000
     49      -0.000000  -0.000000   0.151282   0.000000  -0.461265   0.000000
     50      -0.000000  -0.000000  -0.439931   0.000000   0.058623   0.000000
[...]
                   0.09408   0.11434   0.18587   0.27612   0.33560   0.34418
                   0.00000   0.00000   0.00000   0.00000   0.00000   0.00000
                  --------  --------  --------  --------  --------  --------
 0 C  s               0.0       0.0       0.0       0.0       4.4       1.0
 0 C  pz              0.1       0.0      16.5      17.5       0.0       0.0
 0 C  px              0.0       0.0       0.0       0.0       3.4       1.6
 0 C  py              0.0       0.0       0.0       0.0       0.1       3.0
 1 C  s               0.0       0.0       0.0       0.0       4.4       1.0
 1 C  pz              0.1       0.0      16.5      17.5       0.0       0.0
 1 C  px              0.0       0.0       0.0       0.0       3.4       1.6
 1 C  py              0.0       0.0       0.0       0.0       0.1       3.0
 2 C  s               0.0       0.0       0.0       0.0       0.9       0.0
 2 C  pz             26.2       4.3       1.9      12.9       0.0       0.0
 2 C  px              0.0       0.0       0.0       0.0       0.4       0.2
 2 C  py              0.0       0.0       0.0       0.0       3.4       5.2
 3 C  s               0.0       0.0       0.0       0.0       0.9       0.0
 3 C  pz             26.2       4.3       1.9      12.9       0.0       0.0
 3 C  px              0.0       0.0       0.0       0.0       0.4       0.2
 3 C  py              0.0       0.0       0.0       0.0       3.4       5.2
 4 C  s               0.0       0.0       0.0       0.0       2.2       0.2
 4 C  pz             23.7       4.0       2.7      13.1       0.0       0.0
 4 C  px              0.0       0.0       0.0       0.0       0.3       0.2
 4 C  py              0.0       0.0       0.0       0.0       1.8       3.6
 5 C  s               0.0       0.0       0.0       0.0       2.2       0.2
 5 C  pz             23.7       4.0       2.7      13.1       0.0       0.0
 5 C  px              0.0       0.0       0.0       0.0       0.3       0.2
 5 C  py              0.0       0.0       0.0       0.0       1.8       3.6
 6 H  s               0.0       0.0       0.0       0.0       6.7       4.2
 7 H  s               0.0       0.0       0.0       0.0       6.7       4.2
 8 H  s               0.0       0.0       0.0       0.0       6.8       2.9
 9 H  s               0.0       0.0       0.0       0.0       6.8       2.9
10 C  s               0.0       0.0       0.0       0.0       1.7       0.0
10 C  pz              0.0      20.6      19.0       4.9       0.0       0.0
10 C  px              0.0       0.0       0.0       0.0       6.5       3.3
10 C  py              0.0       0.0       0.0       0.0       1.5       4.0
11 C  s               0.0       0.0       0.0       0.0       1.7       0.0
11 C  pz              0.0      20.6      19.0       4.9       0.0       0.0
11 C  px              0.0       0.0       0.0       0.0       6.5       3.3
11 C  py              0.0       0.0       0.0       0.0       1.5       4.0
12 H  s               0.0       0.0       0.0       0.0       1.1       7.7
13 H  s               0.0       0.0       0.0       0.0       1.1       7.7
14 C  s               0.0       0.0       0.0       0.0       1.1       0.0
14 C  pz              0.0      21.0      10.0       1.5       0.0       0.0
14 C  px              0.0       0.0       0.0       0.0       1.4       2.0
14 C  py              0.0       0.0       0.0       0.0       0.5       3.2
15 C  s               0.0       0.0       0.0       0.0       1.1       0.0
15 C  pz              0.0      21.0      10.0       1.5       0.0       0.0
15 C  px              0.0       0.0       0.0       0.0       1.4       2.0
15 C  py              0.0       0.0       0.0       0.0       0.5       3.2
16 H  s               0.0       0.0       0.0       0.0       0.6       4.3
17 H  s               0.0       0.0       0.0       0.0       0.6       4.3
18 H  s               0.0       0.0       0.0       0.0       5.0       3.3
19 H  s               0.0       0.0       0.0       0.0       5.0       3.3

                     42        43        44        45        46        47   
                   0.38285   0.38493   0.41443   0.41544   0.43021   0.44302
                   0.00000   0.00000   0.00000   0.00000   0.00000   0.00000
                  --------  --------  --------  --------  --------  --------
 0 C  s               2.5       0.4       2.1       4.4       0.4      12.3
 0 C  px              8.2       0.1       0.5       0.0       2.4       0.0
 0 C  py              1.4       0.5       2.7       0.5       0.3       0.0
 1 C  s               2.5       0.4       2.1       4.4       0.4      12.3
 1 C  px              8.2       0.1       0.5       0.0       2.4       0.0
 1 C  py              1.4       0.5       2.7       0.5       0.3       0.0
 2 C  s               0.4       3.6       4.4       3.6       2.6       5.0
 2 C  px              1.9       0.6       0.6       0.0       5.2       2.5
 2 C  py              1.4       0.0       0.2       0.6       2.8       0.0
 3 C  s               0.4       3.6       4.4       3.6       2.6       5.0
 3 C  px              1.9       0.6       0.6       0.0       5.2       2.5
 3 C  py              1.4       0.0       0.2       0.6       2.8       0.0
 4 C  s               0.0       0.5       7.9       7.6       0.0       3.7
 4 C  px              3.2       1.1       0.0       0.8       1.0       2.6
 4 C  py              4.0       1.9       0.0       0.1       1.4       1.2
 5 C  s               0.0       0.5       7.9       7.6       0.0       3.7
 5 C  px              3.2       1.1       0.0       0.8       1.0       2.6
 5 C  py              4.0       1.9       0.0       0.1       1.4       1.2
 6 H  s               0.5       3.0       1.6       3.7      12.5       3.2
 7 H  s               0.5       3.0       1.6       3.7      12.5       3.2
 8 H  s               6.6       3.4       1.5       4.2       0.1       1.2
 9 H  s               6.6       3.4       1.5       4.2       0.1       1.2
10 C  s               6.6       3.3       0.7       1.6       4.9       6.0
10 C  px              5.2       0.6       1.4       0.6       0.0       0.2
10 C  py              0.0       4.3       1.0       1.1       2.0       0.8
11 C  s               6.6       3.3       0.7       1.6       4.9       6.0
11 C  px              5.2       0.6       1.4       0.6       0.0       0.2
11 C  py              0.0       4.3       1.0       1.1       2.0       0.8
12 H  s               0.7      12.1       1.0       1.4       6.5       4.4
13 H  s               0.7      12.1       1.0       1.4       6.5       4.4
14 C  s               1.6       0.2       9.7       6.7       0.5       3.2
14 C  px              1.2       3.1       0.1       0.3       3.3       0.2
14 C  py              0.2       3.1       2.3       2.8       0.0       0.0
15 C  s               1.6       0.2       9.7       6.7       0.5       3.2
15 C  px              1.2       3.1       0.1       0.3       3.3       0.2
15 C  py              0.2       3.1       2.3       2.8       0.0       0.0
16 H  s               0.0       5.9       8.9       6.9       0.1       1.4
17 H  s               0.0       5.9       8.9       6.9       0.1       1.4
18 H  s               4.4       2.4       3.4       3.2       4.0       2.1
19 H  s               4.4       2.4       3.4       3.2       4.0       2.1

                     48        49        50        51        52        53   
                   0.45604   0.48150   0.52974   0.54915   0.57938   0.60280
                   0.00000   0.00000   0.00000   0.00000   0.00000   0.00000
                  --------  --------  --------  --------  --------  --------
 0 C  s               2.4       1.1       4.1       0.0       0.0       3.5
 0 C  px              0.3       0.0      12.9       0.0       0.2       0.0
 0 C  py              1.0       3.8       0.0      10.4       1.3       1.8
 1 C  s               2.4       1.1       4.1       0.0       0.0       3.5
 1 C  px              0.3       0.0      12.9       0.0       0.2       0.0
 1 C  py              1.0       3.8       0.0      10.4       1.3       1.8
 2 C  s               2.4       9.8       0.1       8.9       0.0       1.2
 2 C  px              0.5       0.5       0.1       0.4       2.8      14.1
 2 C  py              0.9       0.2       8.0       0.0       8.0       3.3
 3 C  s               2.4       9.8       0.1       8.9       0.0       1.2
 3 C  px              0.5       0.5       0.1       0.4       2.8      14.1
 3 C  py              0.9       0.2       8.0       0.0       8.0       3.3
 4 C  s               3.1       7.6       2.0       1.6       0.0       7.2
 4 C  px              0.5       1.2       0.0       8.1       3.1       6.2
 4 C  py              1.5       0.4       3.2       0.4      11.9       2.0
 5 C  s               3.1       7.6       2.0       1.6       0.0       7.2
 5 C  px              0.5       1.2       0.0       8.1       3.1       6.2
 5 C  py              1.5       0.4       3.2       0.4      11.9       2.0
 6 H  s               0.2       1.3       2.3       2.5       6.3       0.1
 7 H  s               0.2       1.3       2.3       2.5       6.3       0.1
 8 H  s               7.3       3.2       0.1       1.3       8.5       1.6
 9 H  s               7.3       3.2       0.1       1.3       8.5       1.6
10 C  s               3.2       1.1       5.1       0.8       2.3       3.1
10 C  px              0.5       0.1       0.0       0.0       0.5       0.3
10 C  py              0.1       0.0       0.9       2.5       0.6       0.1
11 C  s               3.2       1.1       5.1       0.8       2.3       3.1
11 C  px              0.5       0.1       0.0       0.0       0.5       0.3
11 C  py              0.1       0.0       0.9       2.5       0.6       0.1
12 H  s               2.8       0.2       2.6       0.8       0.2       1.6
13 H  s               2.8       0.2       2.6       0.8       0.2       1.6
14 C  s              10.2       3.7       0.2       0.1       1.4       0.0
14 C  px              0.0       4.6       1.4       7.9       1.9       0.1
14 C  py              1.0       1.3       3.2       0.1       0.5       2.4
15 C  s              10.2       3.7       0.2       0.1       1.4       0.0
15 C  px              0.0       4.6       1.4       7.9       1.9       0.1
15 C  py              1.0       1.3       3.2       0.1       0.5       2.4
16 H  s               8.7       2.6       1.8       0.3       0.4       1.3
17 H  s               8.7       2.6       1.8       0.3       0.4       1.3
18 H  s               3.3       7.3       2.0       4.2       0.2       0.0
19 H  s               3.3       7.3       2.0       4.2       0.2       0.0

                     54        55        56        57        58        59   
                   0.62847   0.64287   0.68650   0.72062   0.78288   0.79788
                   0.00000   0.00000   0.00000   0.00000   0.00000   0.00000
                  --------  --------  --------  --------  --------  --------
 0 C  s               7.4       0.1       0.3       0.4       0.0       1.5
 0 C  px              0.0       4.6       4.3       0.1       0.2      12.4
 0 C  py              1.4       0.1       1.3       6.2      14.0       0.1
 1 C  s               7.4       0.1       0.3       0.4       0.0       1.5
 1 C  px              0.0       4.6       4.3       0.1       0.2      12.4
 1 C  py              1.4       0.1       1.3       6.2      14.0       0.1
 2 C  s               0.2       0.7       0.3       2.0       0.0       2.0
 2 C  px              0.1       5.4       4.3       0.2       7.0       2.8
 2 C  py              1.9       1.2       1.1       1.4       3.0       7.2
 3 C  s               0.2       0.7       0.3       2.0       0.0       2.0
 3 C  px              0.1       5.4       4.3       0.2       7.0       2.8
 3 C  py              1.9       1.2       1.1       1.4       3.0       7.2
 4 C  s               0.8       0.8       0.3       0.5       0.0       2.6
 4 C  px              1.9       3.4       5.8       1.3       6.8       2.3
 4 C  py              3.3       0.5       0.3       0.0       3.8       8.4
 5 C  s               0.8       0.8       0.3       0.5       0.0       2.6
 5 C  px              1.9       3.4       5.8       1.3       6.8       2.3
 5 C  py              3.3       0.5       0.3       0.0       3.8       8.4
 6 H  s               0.5       1.4       0.0       0.0       0.0       2.1
 7 H  s               0.5       1.4       0.0       0.0       0.0       2.1
 8 H  s               0.0       0.1       1.1       0.3       0.1       2.2
 9 H  s               0.0       0.1       1.1       0.3       0.1       2.2
10 C  s               0.6       1.5       1.6       3.4       0.7       0.2
10 C  px              8.4       2.5      12.1       3.3       1.5       4.0
10 C  py              1.8       8.2       1.2      12.6       5.9       0.0
11 C  s               0.6       1.5       1.6       3.4       0.7       0.2
11 C  px              8.4       2.5      12.1       3.3       1.5       4.0
11 C  py              1.8       8.2       1.2      12.6       5.9       0.0
12 H  s               3.5       3.2       0.5       1.0       0.7       0.1
13 H  s               3.5       3.2       0.5       1.0       0.7       0.1
14 C  s               0.3       0.8       2.2       4.6       1.6       0.1
14 C  px              3.5       9.6       0.3       6.1       2.0       0.0
14 C  py              7.2       0.3      10.7       6.2       2.4       1.4
15 C  s               0.3       0.8       2.2       4.6       1.6       0.1
15 C  px              3.5       9.6       0.3       6.1       2.0       0.0
15 C  py              7.2       0.3      10.7       6.2       2.4       1.4
16 H  s               3.9       2.3       2.1       0.0       0.1       0.5
17 H  s               3.9       2.3       2.1       0.0       0.1       0.5
18 H  s               3.3       3.4       0.3       0.4       0.1       0.1
19 H  s               3.3       3.4       0.3       0.4       0.1       0.1



                      *****************************
                      * MAYER POPULATION ANALYSIS *
                      *****************************

  NA   - Mulliken gross atomic population
  ZA   - Total nuclear charge
  QA   - Mulliken gross atomic charge
  VA   - Mayer's total valence
  BVA  - Mayer's bonded valence
  FA   - Mayer's free valence

  ATOM       NA         ZA         QA         VA         BVA        FA
  0 C      6.0045     6.0000    -0.0045     3.9730     3.9730    -0.0000
  1 C      6.0045     6.0000    -0.0045     3.9730     3.9730     0.0000
  2 C      6.0762     6.0000    -0.0762     3.9692     3.9692    -0.0000
  3 C      6.0762     6.0000    -0.0762     3.9692     3.9692     0.0000
  4 C      6.0769     6.0000    -0.0769     3.9701     3.9701     0.0000
  5 C      6.0769     6.0000    -0.0769     3.9701     3.9701    -0.0000
  6 H      0.9227     1.0000     0.0773     0.9940     0.9940     0.0000
  7 H      0.9227     1.0000     0.0773     0.9940     0.9940     0.0000
  8 H      0.9211     1.0000     0.0789     0.9938     0.9938     0.0000
  9 H      0.9211     1.0000     0.0789     0.9938     0.9938    -0.0000
 10 C      6.0762     6.0000    -0.0762     3.9682     3.9682     0.0000
 11 C      6.0762     6.0000    -0.0762     3.9682     3.9682    -0.0000
 12 H      0.9234     1.0000     0.0766     0.9941     0.9941     0.0000
 13 H      0.9234     1.0000     0.0766     0.9941     0.9941    -0.0000
 14 C      6.1540     6.0000    -0.1540     3.9649     3.9649     0.0000
 15 C      6.1540     6.0000    -0.1540     3.9649     3.9649    -0.0000
 16 H      0.9239     1.0000     0.0761     0.9942     0.9942     0.0000
 17 H      0.9239     1.0000     0.0761     0.9942     0.9942    -0.0000
 18 H      0.9210     1.0000     0.0790     0.9938     0.9938     0.0000
 19 H      0.9210     1.0000     0.0790     0.9938     0.9938    -0.0000

  Mayer bond orders larger than 0.1
B(  0-C ,  2-C ) :   1.3625 B(  0-C ,  5-C ) :   1.3654 B(  0-C , 11-C ) :   1.0666 
B(  1-C ,  3-C ) :   1.3625 B(  1-C ,  4-C ) :   1.3654 B(  1-C , 10-C ) :   1.0666 
B(  2-C ,  4-C ) :   1.4654 B(  2-C ,  6-H ) :   0.9614 B(  3-C ,  5-C ) :   1.4654 
B(  3-C ,  7-H ) :   0.9614 B(  4-C ,  5-C ) :   0.1018 B(  4-C ,  8-H ) :   0.9596 
B(  5-C ,  9-H ) :   0.9596 B( 10-C , 12-H ) :   0.9592 B( 10-C , 14-C ) :   1.9011 
B( 11-C , 13-H ) :   0.9592 B( 11-C , 15-C ) :   1.9011 B( 14-C , 16-H ) :   0.9666 
B( 14-C , 18-H ) :   0.9693 B( 15-C , 17-H ) :   0.9666 B( 15-C , 19-H ) :   0.9693 


-------
TIMINGS
-------

Total SCF time: 0 days 0 hours 0 min 8 sec 

Total time                  ....       8.051 sec
Sum of individual times     ....       8.036 sec  ( 99.8%)

Fock matrix formation       ....       6.442 sec  ( 80.0%)
  XC integration            ....       1.576 sec  ( 24.5% of F)
    Basis function eval.    ....       0.984 sec  ( 62.5% of XC)
    Density eval.           ....       0.183 sec  ( 11.6% of XC)
    XC-Functional eval.     ....       0.211 sec  ( 13.4% of XC)
    XC-Potential eval.      ....       0.160 sec  ( 10.1% of XC)
Diagonalization             ....       0.001 sec  (  0.0%)
Density matrix formation    ....       0.000 sec  (  0.0%)
Population analysis         ....       0.006 sec  (  0.1%)
Initial guess               ....       0.001 sec  (  0.0%)
Orbital Transformation      ....       0.000 sec  (  0.0%)
Orbital Orthonormalization  ....       0.000 sec  (  0.0%)
DIIS solution               ....       0.000 sec  (  0.0%)
SOSCF solution              ....       0.015 sec  (  0.2%)
Grid generation             ....       1.571 sec  ( 19.5%)

-------------------------   --------------------
FINAL SINGLE POINT ENERGY      -382.050786152426
-------------------------   --------------------

                                *** OPTIMIZATION RUN DONE ***

                            ***************************************
                            *     ORCA property calculations      *
                            ***************************************

                                    ---------------------
                                    Active property flags
                                    ---------------------
   (+) Dipole Moment


------------------------------------------------------------------------------
                       ORCA ELECTRIC PROPERTIES CALCULATION
------------------------------------------------------------------------------

Dipole Moment Calculation                       ... on
Quadrupole Moment Calculation                   ... off
Polarizability Calculation                      ... off
GBWName                                         ... dvb_gopt.gbw
Electron density file                           ... dvb_gopt.scfp.tmp
The origin for moment calculation is the CENTER OF MASS  = ( 0.000000, -0.000000  0.000004)

-------------
DIPOLE MOMENT
-------------
                                X             Y             Z
Electronic contribution:      0.00000      -0.00000       0.00004
Nuclear contribution   :     -0.00000       0.00000      -0.00004
                        -----------------------------------------
Total Dipole Moment    :     -0.00000       0.00000      -0.00000
                        -----------------------------------------
Magnitude (a.u.)       :      0.00000
Magnitude (Debye)      :      0.00001


Timings for individual modules:

Sum of individual times         ...       78.251 sec (=   1.304 min)
GTO integral calculation        ...        1.088 sec (=   0.018 min)   1.4 %
SCF iterations                  ...       51.814 sec (=   0.864 min)  66.2 %
SCF Gradient evaluation         ...       25.073 sec (=   0.418 min)  32.0 %
Geometry relaxation             ...        0.276 sec (=   0.005 min)   0.4 %
                             ****ORCA TERMINATED NORMALLY****
TOTAL RUN TIME: 0 days 0 hours 1 minutes 18 seconds 631 msec
