
 CPU=P4 600.000 MHz
 mxmblk= 64  mxmbln= 64  ncache=  16384  mindgm= 33  mindgv= 33  mindgc= 65  mindgl= 65  mindgr=  1  noblas=0  nroll=2  minvec=7
 default implementation of scratch files=df  

  ***, divinylbenzene normal mode analysis
 file,2,dvb_freq
 memory,100,m
 gthresh,energy=1.d-7,grid=1.d-7
 gprint,basis,orbitals
 basis=sto-3g
 geometry={angstrom;
 C,,     1.4163719978,        0.2355121874,        0.0000000000
 C,,     0.4890015094,        1.3144209166,        0.0000000000
 C,,    -0.8947801234,        1.0867269771,        0.0000000000
 C,,    -1.4163720294,       -0.2355123705,        0.0000000000
 C,,    -0.4890015794,       -1.3144210102,        0.0000000000
 C,,     0.8947802299,       -1.0867270423,        0.0000000000
 C,,     2.8841366364,        0.5340603619,        0.0000000000
 C,,    -2.8841366816,       -0.5340602541,        0.0000000000
 H,,     1.5818369242,       -1.9427803982,        0.0000000000
 H,,    -1.5818369485,        1.9427802557,        0.0000000000
 H,,     0.8701448970,        2.3449968145,        0.0000000000
 H,,    -0.8701450118,       -2.3449968779,        0.0000000000
 C,,     3.8854284299,       -0.3632773132,        0.0000000000
 C,,    -3.8854283949,        0.3632775240,        0.0000000000
 H,,     3.1308836661,        1.6066979605,        0.0000000000
 H,,    -3.1308838129,       -1.6066978140,        0.0000000000
 H,,    -4.9342673261,        0.0437742937,        0.0000000000
 H,,     4.9342673873,       -0.0437741237,        0.0000000000
 H,,    -3.7106041810,        1.4455140984,        0.0000000000
 H,,     3.7106044660,       -1.4455139314,        0.0000000000
 }
 ks,b3lyp;accu,12
 {freq;print,hessian}
 put,molden,dvb_ir.molden

 Variables initialized (535), CPU time= 0.01 sec
 Commands  initialized (294), CPU time= 0.05 sec, 434 directives.
 Default parameters read. Elapsed time= 0.21 sec
 Checking input...
 Passed
1


                                         ***  PROGRAM SYSTEM MOLPRO  ***
                         Copyright, University College Cardiff Consultants Limited, 2004

                                    Version 2006.2 linked 30 Aug 2006 18:19:46


 **********************************************************************************************************************************
 LABEL *   divinylbenzene normal mode analysis                                           
 Linux-2.6.18-ck1/agmar(i686) 32 bit version (ifort9.1/mkl_ia32)                         DATE:  25-Sep-06         TIME: 11:39:41  
 **********************************************************************************************************************************

 Installed patches: sortpatchlist acml acml_mv approxB arinp_newmol2 basis_rectangle
                    bccd_save begincepa casvb_data2 cis_triplet citation cleanup_files
                    config_fort df_lcc2_prop df_lcc2_prop2 dfcis_membug2 dflcc2_left1 dflcc2_noinvert1
                    dflcc2_noinvert3 dflcc2_unidom dflcc2_unidom2 dflcc2_unidom_g95 dft_funs dftfun_bib
                    dkh_doc doc_PDFDocEncoded doc_PS doc_ltx2 doc_makefile_fix doc_mk
                    doc_mk2 doc_mk3 doc_version ecerfpbe_numstab eom_idlp2 eom_registry
                    f12_exch9 f12_integrals f12_integrals_undef f12_print fci_len_trim fcicc3
                    fcicc4 fix1184 fix1186 fix1189 fix1209 fix1215
                    fix1219 fix1230 fix1233 fix1235a fix1239 fix1243p1a
                    fix1246 fujitsu_fflush g95opt gcc1 gcc10 gcc5
                    gcc8 gcc9 get_occsym2 getoptlong ia64tuning ibm_driver
                    ifort64 installscripts load_basis2 load_basis3 locpol mac_g95a
                    mac_qfixed mcfrozen mcscf_hessian3 merge_doc_makefile2 mixedfock2 molpro_linux
                    molproc_empty mp3dip mppbench_nocheck optg_gaussian patch_depend patcher_local
                    printblank sapt_c6 semi_dgpp semi_dgss semi_dhsp slater2
                    sun tru64_1 tru64_parse2 vscf_4Dsym vscf_64bit vscf_ext1D
                    vscf_frag2 vscf_fragsym vscf_lab3D vscf_modmppx vscf_mppx vscf_polin
                    vscf_restart1 vscf_semi vscf_tapsav vscf_testjob vscf_warn xccden_opt
                    xt3_gcc
 **********************************************************************************************************************************

 Variable memory set to    8000000 words,  buffer space   230000 words
 


 Permanent file  2  dvb_freq assigned.  Implementation=df    Size=  1.93 MB
 

 PROGRAM * RESTART 


 Reading variables from file 2

 FOCKDONE        =      1.00000000
 SCFDONE         =      1.00000000
 DIRECT          =      0.00000000
 DFTNAME         =    B3LYP
 DFTFUNC         =    B88
 DFTFUNC         =    DIRAC
 DFTFUNC         =    LYP
 DFTFUNC         =    VWN5
 BASIS           =    STO-3G
 NELEC           =     70.00000000
 SPIN            =      0.00000000
 PROGRAM         =    KS-SCF
 CPUSTEP         =     49.73000000
 SYSSTEP         =      2.81000000
 WALLSTEP        =     52.82000000
 BASINP          =    610.00000000
 CPUTOT          =     54.88000000
 DFTEXFAC        =      0.20000000
 DFTFAC(1:4)     =      0.72000000     0.08000000     0.81000000     0.19000000
 DFTFUN          =    -46.52576805
 DFTFUNS(1:4)    =    -55.31221564   -49.79031859    -2.30532883    -4.47595239
 DMX             =      0.00000000
 DMY             =     -0.00000001
 DMZ             =      0.00000000
 ENERGY          =   -382.05077395
 ENUC            =    445.81042271
 EPS1(1:35)      =    -10.01621372   -10.01616632   -10.00411328   -10.00411232   -10.00280044   -10.00279710
                      -10.00207747   -10.00193871    -9.98835103    -9.98835095    -0.80574726    -0.75022177
                       -0.71421939    -0.69606032    -0.66380129    -0.58495765    -0.55526067    -0.52795208
                       -0.50644749    -0.45374645    -0.43561697    -0.40695218    -0.39421891    -0.39232539
                       -0.37030203    -0.34742195    -0.34359905    -0.32080868    -0.30755411    -0.28911310
                       -0.28375845    -0.25984977    -0.20876248    -0.19139381    -0.14942673
 GRADEXFAC       =      0.20000000
 GRADMETHOD      =      1.00000000
 GRID            =   1800.20000000
 GRID_SPARSITY   =      0.13989758
 GRID_RMAX       =      4.86050653
 ITERATIONS      =     13.00000000
 LASTNELEC       =     70.00000000
 LASTSPIN        =      0.00000000
 LASTSYM         =      1.00000000
 NGRID           =  24920.00000000
 ORBITAL         =   2100.20000000
 SEIG_MIN        =      0.18150601
 STATUS          =      1.00000000
 SYSTOT          =      2.94000000
 WALLTOT         =     58.48000000
 LASTORB         =    RKS
 PGROUP          =    C1  

 Geometry written to block  1 of record 700


 **********************************************************************************************************************************
 DATASETS  * FILE   NREC   LENGTH (MB)   RECORD NAMES
              2       7        2.03       500      610      700     1000     1800     1801     2100   
                                          VAR    BASINP    GEOM     BASIS    GRID     GRID      RKS  
 
 PROGRAMS   *        TOTAL   RESTART
 CPU TIMES  *         0.51      0.03
 REAL TIME  *         0.52 SEC
 DISK USED  *         0.03 MB      
 **********************************************************************************************************************************

 THRESHOLDS:

 ZERO    =  1.00D-12  ONEINT  =  1.00D-12  TWOINT  =  1.00D-11  PREFAC  =  1.00D-14  LOCALI  =  1.00D-09  EORDER  =  1.00D-04
 ENERGY  =  1.00D-07  ETEST   =  0.00D+00  EDENS   =  0.00D+00  THRDEDEF=  1.00D-06  GRADIENT=  1.00D-02  STEP    =  1.00D-03
 ORBITAL =  1.00D-05  CIVEC   =  1.00D-05  COEFF   =  1.00D-04  PRINTCI =  5.00D-02  PUNCHCI =  9.90D+01  OPTGRAD =  3.00D-04
 OPTENERG=  1.00D-06  OPTSTEP =  3.00D-04  THRGRAD =  1.00D-10  COMPRESS=  1.00D-11  VARMIN  =  1.00D-07  VARMAX  =  1.00D-03
 THRDOUB =  0.00D+00  THRDIV  =  1.00D-05  THRRED  =  1.00D-07  THRPSP  =  1.00D+00  THRDC   =  1.00D-10  THRCS   =  1.00D-10
 THRNRM  =  1.00D-08  THREQ   =  0.00D+00  THRDE   =  1.00D+00  THRREF  =  1.00D-05  SPARFAC =  1.00D+00  THRDLP  =  1.00D-07
 THRDIA  =  1.00D-10  THRDLS  =  1.00D-07  THRGPS  =  0.00D+00  THRKEX  =  0.00D+00  THRDIS  =  2.00D-01  THRVAR  =  1.00D-10
 THRLOC  =  1.00D-06  THRGAP  =  1.00D-06  THRLOCT = -1.00D+00  THRGAPT = -1.00D+00  THRORB  =  1.00D-06  THRMLTP =  0.00D+00
 THRCPQCI=  1.00D-10  KEXTA   =  0.00D+00  THRCOARS=  0.00D+00  SYMTOL  =  1.00D-06  GRADTOL =  1.00D-06  THROVL  =  1.00D-08
 THRORTH =  1.00D-08  GRID    =  1.00D-07  GRIDMAX =  1.00D-03  DTMAX   =  0.00D+00



 Variable memory set to  100000000 words,  buffer space   230000 words
 
 SETTING BASIS          =    STO-3G


 Recomputing integrals since basis changed


 Using spherical harmonics

 Library entry C      S STO-3G               selected for orbital group  1
 Library entry C      P STO-3G               selected for orbital group  1
 Library entry H      S STO-3G               selected for orbital group  2

1PROGRAM * SEWARD (Integral evaluation for generally contracted gaussian basis sets)     Author: Roland Lindh, 1990

 Geometry written to block  1 of record 701


 Point group  C2h 



 ATOMIC COORDINATES

 NR  ATOM    CHARGE       X              Y              Z

   1  C       6.00    2.676555004    0.445053674    0.000000000
   2  C       6.00   -2.676555004   -0.445053674    0.000000000
   3  C       6.00    0.924078927    2.483895454    0.000000000
   4  C       6.00   -0.924078927   -2.483895454    0.000000000
   5  C       6.00   -1.690889354    2.053616273    0.000000000
   6  C       6.00    1.690889354   -2.053616273    0.000000000
   7  C       6.00    5.450227999    1.009227643    0.000000000
   8  C       6.00   -5.450227999   -1.009227643    0.000000000
   9  C       6.00    7.342395048   -0.686494779    0.000000000
  10  C       6.00   -7.342395048    0.686494779    0.000000000
  11  H       1.00    2.989238368   -3.671322474    0.000000000
  12  H       1.00   -2.989238368    3.671322474    0.000000000
  13  H       1.00    1.644335534    4.431401483    0.000000000
  14  H       1.00   -1.644335534   -4.431401483    0.000000000
  15  H       1.00    5.916512370    3.036218753    0.000000000
  16  H       1.00   -5.916512370   -3.036218753    0.000000000
  17  H       1.00   -9.324413259    0.082721260    0.000000000
  18  H       1.00    9.324413259   -0.082721260    0.000000000
  19  H       1.00   -7.012025423    2.731625401    0.000000000
  20  H       1.00    7.012025423   -2.731625401    0.000000000

 Bond lengths in Bohr (Angstrom)

 1-3  2.688502967  1-6  2.686054407  1-7  2.830468893  2-4  2.688502967  2-5  2.686054407
     (1.422694604)     (1.421398882)     (1.497819742)     (1.422694604)     (1.421398882)

  2- 8  2.830468893   3- 5  2.650131937   3-13  2.076427055   4- 6  2.650131937   4-14  2.076427055
       (1.497819742)       (1.402389528)       (1.098797956)       (1.402389528)       (1.098797956)

  5-12  2.074291088   6-11  2.074291088   7- 9  2.540820866   7-15  2.079931267   8-10  2.540820866
       (1.097667651)       (1.097667651)       (1.344544596)       (1.100652306)       (1.344544596)

  8-16  2.079931267   9-18  2.071940793   9-20  2.071642669  10-17  2.071940793  10-19  2.071642669
       (1.100652306)       (1.096423929)       (1.096266169)       (1.096423929)       (1.096266169)

 Bond angles

  1- 3- 5  121.33655069   1- 3-13  119.02328488   1- 6- 4  120.87203890   1- 6-11  119.72189484

  1- 7- 9  126.63663867   1- 7-15  114.45211469   2- 4- 6  121.33655069   2- 4-14  119.02328488

  2- 5- 3  120.87203890   2- 5-12  119.72189484   2- 8-10  126.63663867   2- 8-16  114.45211469

  3- 1- 6  117.79141041   3- 1- 7  119.18324005   3- 5-12  119.40606626   4- 2- 5  117.79141041

  4- 2- 8  119.18324005   4- 6-11  119.40606626   5- 2- 8  123.02534954   5- 3-13  119.64016443

  6- 1- 7  123.02534954   6- 4-14  119.64016443   7- 9-18  121.19185855   7- 9-20  122.68979456

  8-10-17  121.19185855   8-10-19  122.68979456   9- 7-15  118.91124664  10- 8-16  118.91124664

 17-10-19  116.11834690  18- 9-20  116.11834690


 BASIS DATA

   Nr Sym  Nuc  Type         Exponents   Contraction coefficients

   1.1 Ag    1  1s           71.616837     0.154329
             2  1s           13.045096     0.535328
                              3.530512     0.444635
   2.1 Ag    1  1s            2.941249    -0.099967
             2  1s            0.683483     0.399513
                              0.222290     0.700115
   3.1 Ag    1  2px           2.941249     0.155916
             2 -2px           0.683483     0.607684
                              0.222290     0.391957
   4.1 Ag    1  2py           2.941249     0.155916
             2 -2py           0.683483     0.607684
                              0.222290     0.391957
   5.1 Ag    3  1s           71.616837     0.154329
             4  1s           13.045096     0.535328
                              3.530512     0.444635
   6.1 Ag    3  1s            2.941249    -0.099967
             4  1s            0.683483     0.399513
                              0.222290     0.700115
   7.1 Ag    3  2px           2.941249     0.155916
             4 -2px           0.683483     0.607684
                              0.222290     0.391957
   8.1 Ag    3  2py           2.941249     0.155916
             4 -2py           0.683483     0.607684
                              0.222290     0.391957
   9.1 Ag    5  1s           71.616837     0.154329
             6  1s           13.045096     0.535328
                              3.530512     0.444635
  10.1 Ag    5  1s            2.941249    -0.099967
             6  1s            0.683483     0.399513
                              0.222290     0.700115
  11.1 Ag    5  2px           2.941249     0.155916
             6 -2px           0.683483     0.607684
                              0.222290     0.391957
  12.1 Ag    5  2py           2.941249     0.155916
             6 -2py           0.683483     0.607684
                              0.222290     0.391957
  13.1 Ag    7  1s           71.616837     0.154329
             8  1s           13.045096     0.535328
                              3.530512     0.444635
  14.1 Ag    7  1s            2.941249    -0.099967
             8  1s            0.683483     0.399513
                              0.222290     0.700115
  15.1 Ag    7  2px           2.941249     0.155916
             8 -2px           0.683483     0.607684
                              0.222290     0.391957
  16.1 Ag    7  2py           2.941249     0.155916
             8 -2py           0.683483     0.607684
                              0.222290     0.391957
  17.1 Ag    9  1s           71.616837     0.154329
            10  1s           13.045096     0.535328
                              3.530512     0.444635
  18.1 Ag    9  1s            2.941249    -0.099967
            10  1s            0.683483     0.399513
                              0.222290     0.700115
  19.1 Ag    9  2px           2.941249     0.155916
            10 -2px           0.683483     0.607684
                              0.222290     0.391957
  20.1 Ag    9  2py           2.941249     0.155916
            10 -2py           0.683483     0.607684
                              0.222290     0.391957
  21.1 Ag   11  1s            3.425251     0.154329
            12  1s            0.623914     0.535328
                              0.168855     0.444635
  22.1 Ag   13  1s            3.425251     0.154329
            14  1s            0.623914     0.535328
                              0.168855     0.444635
  23.1 Ag   15  1s            3.425251     0.154329
            16  1s            0.623914     0.535328
                              0.168855     0.444635
  24.1 Ag   17  1s            3.425251     0.154329
            18  1s            0.623914     0.535328
                              0.168855     0.444635
  25.1 Ag   19  1s            3.425251     0.154329
            20  1s            0.623914     0.535328
                              0.168855     0.444635
   1.2 Au    1  2pz           2.941249     0.155916
             2  2pz           0.683483     0.607684
                              0.222290     0.391957
   2.2 Au    3  2pz           2.941249     0.155916
             4  2pz           0.683483     0.607684
                              0.222290     0.391957
   3.2 Au    5  2pz           2.941249     0.155916
             6  2pz           0.683483     0.607684
                              0.222290     0.391957
   4.2 Au    7  2pz           2.941249     0.155916
             8  2pz           0.683483     0.607684
                              0.222290     0.391957
   5.2 Au    9  2pz           2.941249     0.155916
            10  2pz           0.683483     0.607684
                              0.222290     0.391957
   1.3 Bu    1  1s           71.616837     0.154329
             2 -1s           13.045096     0.535328
                              3.530512     0.444635
   2.3 Bu    1  1s            2.941249    -0.099967
             2 -1s            0.683483     0.399513
                              0.222290     0.700115
   3.3 Bu    1  2px           2.941249     0.155916
             2  2px           0.683483     0.607684
                              0.222290     0.391957
   4.3 Bu    1  2py           2.941249     0.155916
             2  2py           0.683483     0.607684
                              0.222290     0.391957
   5.3 Bu    3  1s           71.616837     0.154329
             4 -1s           13.045096     0.535328
                              3.530512     0.444635
   6.3 Bu    3  1s            2.941249    -0.099967
             4 -1s            0.683483     0.399513
                              0.222290     0.700115
   7.3 Bu    3  2px           2.941249     0.155916
             4  2px           0.683483     0.607684
                              0.222290     0.391957
   8.3 Bu    3  2py           2.941249     0.155916
             4  2py           0.683483     0.607684
                              0.222290     0.391957
   9.3 Bu    5  1s           71.616837     0.154329
             6 -1s           13.045096     0.535328
                              3.530512     0.444635
  10.3 Bu    5  1s            2.941249    -0.099967
             6 -1s            0.683483     0.399513
                              0.222290     0.700115
  11.3 Bu    5  2px           2.941249     0.155916
             6  2px           0.683483     0.607684
                              0.222290     0.391957
  12.3 Bu    5  2py           2.941249     0.155916
             6  2py           0.683483     0.607684
                              0.222290     0.391957
  13.3 Bu    7  1s           71.616837     0.154329
             8 -1s           13.045096     0.535328
                              3.530512     0.444635
  14.3 Bu    7  1s            2.941249    -0.099967
             8 -1s            0.683483     0.399513
                              0.222290     0.700115
  15.3 Bu    7  2px           2.941249     0.155916
             8  2px           0.683483     0.607684
                              0.222290     0.391957
  16.3 Bu    7  2py           2.941249     0.155916
             8  2py           0.683483     0.607684
                              0.222290     0.391957
  17.3 Bu    9  1s           71.616837     0.154329
            10 -1s           13.045096     0.535328
                              3.530512     0.444635
  18.3 Bu    9  1s            2.941249    -0.099967
            10 -1s            0.683483     0.399513
                              0.222290     0.700115
  19.3 Bu    9  2px           2.941249     0.155916
            10  2px           0.683483     0.607684
                              0.222290     0.391957
  20.3 Bu    9  2py           2.941249     0.155916
            10  2py           0.683483     0.607684
                              0.222290     0.391957
  21.3 Bu   11  1s            3.425251     0.154329
            12 -1s            0.623914     0.535328
                              0.168855     0.444635
  22.3 Bu   13  1s            3.425251     0.154329
            14 -1s            0.623914     0.535328
                              0.168855     0.444635
  23.3 Bu   15  1s            3.425251     0.154329
            16 -1s            0.623914     0.535328
                              0.168855     0.444635
  24.3 Bu   17  1s            3.425251     0.154329
            18 -1s            0.623914     0.535328
                              0.168855     0.444635
  25.3 Bu   19  1s            3.425251     0.154329
            20 -1s            0.623914     0.535328
                              0.168855     0.444635
   1.4 Bg    1  2pz           2.941249     0.155916
             2 -2pz           0.683483     0.607684
                              0.222290     0.391957
   2.4 Bg    3  2pz           2.941249     0.155916
             4 -2pz           0.683483     0.607684
                              0.222290     0.391957
   3.4 Bg    5  2pz           2.941249     0.155916
             6 -2pz           0.683483     0.607684
                              0.222290     0.391957
   4.4 Bg    7  2pz           2.941249     0.155916
             8 -2pz           0.683483     0.607684
                              0.222290     0.391957
   5.4 Bg    9  2pz           2.941249     0.155916
            10 -2pz           0.683483     0.607684
                              0.222290     0.391957

 NUCLEAR CHARGE:                   70
 NUMBER OF PRIMITIVE AOS:         180
 NUMBER OF SYMMETRY AOS:          180
 NUMBER OF CONTRACTIONS:           60   (  25Ag  +   5Au  +  25Bu  +   5Bg  )
 NUMBER OF CORE ORBITALS:          10   (   5Ag  +   0Au  +   5Bu  +   0Bg  )
 NUMBER OF VALENCE ORBITALS:       50   (  20Ag  +   5Au  +  20Bu  +   5Bg  )

 SYMMETRY CHANGED: INITIALIZING OCCUPATION


 NUCLEAR REPULSION ENERGY  445.81042271


 Eigenvalues of metric

         1 0.193E+00 0.216E+00 0.224E+00 0.283E+00 0.298E+00 0.314E+00 0.321E+00 0.343E+00
         2 0.676E+00 0.773E+00 0.842E+00 0.122E+01 0.152E+01
         3 0.182E+00 0.195E+00 0.249E+00 0.262E+00 0.291E+00 0.299E+00 0.321E+00 0.360E+00
         4 0.598E+00 0.759E+00 0.109E+01 0.118E+01 0.134E+01
 

 Contracted 2-electron integrals neglected if value below      1.0D-11
 AO integral compression algorithm  1   Integral accuracy      1.0D-11

     2.884 MB (compressed) written to integral file ( 54.2%)
 

 NUMBER OF SORTED TWO-ELECTRON INTEGRALS:     529115.     BUFFER LENGTH:  32768
 NUMBER OF SEGMENTS:   1  SEGMENT LENGTH:     529115      RECORD LENGTH: 524288

 Memory used in sort:       1.09 MW

 SORT1 READ     610800. AND WROTE     513244. INTEGRALS IN    2 RECORDS. CPU TIME:     0.10 SEC, REAL TIME:     0.12 SEC
 SORT2 READ     513244. AND WROTE     529115. INTEGRALS IN   11 RECORDS. CPU TIME:     0.15 SEC, REAL TIME:     0.18 SEC

 FILE SIZES:   FILE 1:    4.5 MBYTE,  FILE 4:    8.4 MBYTE,   TOTAL:   12.9 MBYTE

 OPERATOR DM      FOR CENTER  0  COORDINATES:    0.000000    0.000000    0.000000


 **********************************************************************************************************************************
 DATASETS  * FILE   NREC   LENGTH (MB)   RECORD NAMES
              1      20        3.78       500      700      610      701      900      950      970     1001     1100     1400   
                                          VAR     GEOM    BASINP    GEOM    SYMINP    ZMAT    AOBASIS   BASIS      S        T 
                                         1410     1200     1210     1080     1600      129      960     1650     1300     1700   
                                           V       H0       H01     AOSYM     SMH      P2S    ABASIS   MOLCAS    ERIS     OPER   
 
              2       9        2.38       500      610      700     1000     1800     1801     2100      701     1001   
                                          VAR    BASINP    GEOM     BASIS    GRID     GRID      RKS     GEOM     BASIS   
 
 PROGRAMS   *        TOTAL       INT   RESTART
 CPU TIMES  *         3.69      3.15      0.03
 REAL TIME  *         3.80 SEC
 DISK USED  *        15.85 MB      
 **********************************************************************************************************************************

 Density functional group B3LYP=B88+DIRAC+LYP+VWN5
 Functional: B88(Automatically generated B88)                                  Gradient terms: 1
 Functional: DIRAC(Automatically generated DIRAC)                              Gradient terms: 0
 Functional: LYP(Lee-Yang-Parr gradient-corrected correlation energy (1988))   Gradient terms: 1
 Functional: VWN5(Automatically generated VWN5)                                Gradient terms: 0
 Use grid at  1800.2
 

 Exact exchange will be calculated, factor:  0.2000

 Functional: B88                       Factor:  0.7200
 Functional: DIRAC                     Factor:  0.0800
 Functional: LYP                       Factor:  0.8100
 Functional: VWN5                      Factor:  0.1900
 
 Generated new metagrid on record  1800.2 with target accuracy 1.0D-07 and 140128 points in CPU time    4.2
 Computed new grid on record 1800.1 in CPU time    6.9
   52122 words reserved for DFT integration

 PROGRAM * RKS-SCF (Restricted closed shell Kohn-Sham)     Authors: W. Meyer, H.-J. Werner, P.J. Knowles, 1993

 NUMBER OF ELECTRONS:      35+   35-
 CONVERGENCE THRESHOLDS:    1.00E-06 (Density)    1.00E-08 (Energy)
 MAX. NUMBER OF ITERATIONS:       60
 INTERPOLATION TYPE:            DIIS
 INTERPOLATION STEPS:              2 (START)      1 (STEP)
 LEVEL SHIFTS:                  0.00 (CLOSED)  0.00 (OPEN) 



 Molecular orbitals read from record     2100.2  Type=RKS/CANONICAL (state 1.1)
 
 Present basis size:      25   5  25   5
 Previous basis size:     60
 Previous occupation:     35
 Previous closed-shells:  35
 Previous core-orbitals:  10
 Present occupation:      15   2  15   3
 Present closed-shells:   15   2  15   3
 Present core-orbitals:    5   0   5   0
 Wavefunction symmetry:    1   Singlet 

 Orbital overlap <old|new>:  < 1.1| 1.3> = 1.000000   < 2.1| 1.1> = 1.000000   < 3.1| 2.3> = 0.999998   < 4.1| 2.1> = 0.999998
                             < 5.1| 3.3> = 0.999999   < 6.1| 3.1> = 0.999999   < 7.1| 4.3> = 1.000000   < 8.1| 4.1> = 1.000000
                             < 9.1| 5.3> = 0.999790   <10.1| 5.1> = 0.999790   <11.1| 6.1> = 1.000000   <12.1| 6.3> = 1.000000
                             <13.1| 7.1> = 1.000000   <14.1| 7.3> = 1.000000   <15.1| 8.3> = 1.000000   <16.1| 8.1> = 1.000000
                             <17.1| 9.1> = 1.000000   <18.1| 9.3> = 1.000000   <19.1|10.1> = 1.000000   <20.1|11.1> = 1.000000
                             <21.1|10.3> = 1.000000   <22.1|11.3> = 1.000000   <23.1|12.3> = 1.000000   <24.1|12.1> = 1.000000
                             <25.1|13.3> = 1.000000   <26.1|14.3> = 1.000000   <27.1|13.1> = 1.000000   <28.1| 1.2> = 1.000000
                             <29.1|15.3> = 1.000000   <30.1|14.1> = 1.000000   <31.1|15.1> = 1.000000   <32.1| 1.4> = 1.000000
                             <33.1| 2.2> = 1.000000   <34.1| 2.4> = 1.000000   <35.1| 3.4> = 1.000000

 Molecular orbital dump at record        2101.2
 Use fine grid record 1800.2 for energy threshold 1.0D-07

 ITERATION    DDIFF          GRAD             ENERGY        2-EL.EN.            DIPOLE MOMENTS         DIIS
    1      0.000D+00      0.000D+00      -382.05077395   1238.107175   0.000000   0.000000   0.000000    0
    2      0.000D+00      0.115D-06      -382.05077395   1238.107129   0.000000   0.000000   0.000000    1
    3      0.340D-06      0.132D-06      -382.05077395   1238.107204   0.000000   0.000000   0.000000    0
 
 Final occupancy:  15   2  15   3
 
 !RKS STATE 1.1 ENERGY               -382.050773945106
 Nuclear energy                       445.81042271
 One-electron energy                -1400.38903071
 Two-electron energy                  619.05360212
 SCF exchange energy                  -55.29324655     Factor=0.2000
 Density functional                   -46.52576806     B88=-55.31221564 DIRAC=-49.79031860 LYP= -2.30532883 VWN5= -4.47595239
 Virial quotient                       -1.01652360
 !RKS STATE 1.1 DIPOLE MOMENT           0.00000000     0.00000000     0.00000000
 Dipole moment /Debye                   0.00000000     0.00000000     0.00000000

 ELECTRON ORBITALS
 =================


   Orb  Occ    Energy  Couls-En    Coefficients

                                   1 1s      1 1s      1 2px     1 2py     2 1s      2 1s      2 2px     2 2py     3 1s      3 1s   
                                   3 2px     3 2py     4 1s      4 1s      4 2px     4 2py     5 1s      5 1s      5 2px     5 2py  
                                   6 1s      7 1s      8 1s      9 1s     10 1s   

   1.1   2   -10.0162  -42.2584 -0.988943 -0.044349  0.000909 -0.000031  0.027041  0.009777  0.004247 -0.004690  0.027487  0.009727
                                -0.002492 -0.005747  0.039332  0.009606 -0.005670 -0.001295 -0.000280 -0.000675  0.000409  0.000006
                                -0.000316 -0.000312 -0.000477  0.000039  0.000198

   2.1   2   -10.0041  -39.9353  0.039952 -0.005751 -0.005827 -0.000941 -0.016668 -0.000800 -0.000086  0.000269 -0.014558 -0.000596
                                -0.000015  0.000297  0.989580  0.043506  0.001540 -0.001042 -0.011539 -0.010765  0.004869 -0.004299
                                -0.000088  0.000117 -0.009080  0.000306  0.000265

   3.1   2   -10.0028  -41.4646  0.009397 -0.002343 -0.000275  0.007363 -0.528041 -0.031105  0.005538  0.001444  0.837359  0.041811
                                 0.004083 -0.000009  0.003057  0.000125  0.000081 -0.000159 -0.000600 -0.000137  0.000050  0.000032
                                -0.007734  0.004898 -0.000060 -0.000007  0.000226

   4.1   2   -10.0019  -41.4201  0.040381 -0.010383  0.004441 -0.000905  0.837587  0.031838  0.002711  0.000041  0.528434  0.015384
                                -0.004746 -0.000943  0.020393  0.000889  0.000247 -0.000009 -0.001542 -0.000404  0.000236 -0.000063
                                -0.004811 -0.007651 -0.000315 -0.000015  0.000107

   5.1   2    -9.9883  -37.9587  0.000252  0.000221  0.000067 -0.000035  0.000822 -0.000085 -0.000038  0.000023  0.001201 -0.000050
                                 0.000125  0.000005  0.012812 -0.009738 -0.004780  0.004351  0.990624  0.043640 -0.001302  0.001262
                                 0.000141 -0.000024  0.000062 -0.009016 -0.008986

   6.1   2    -0.8057  -18.8687 -0.152491  0.388431 -0.057839 -0.007960 -0.138406  0.349370 -0.020544 -0.075207 -0.138066  0.349049
                                 0.044557 -0.064858 -0.070250  0.180656 -0.040266 -0.018113 -0.034796  0.088449 -0.028700  0.017521
                                 0.063827  0.063613  0.036284  0.014955  0.019868

   7.1   2    -0.7142  -16.2575 -0.006587  0.021436  0.135978  0.014989  0.065352 -0.171375  0.052473  0.022672  0.059066 -0.154182
                                -0.066815  0.002884 -0.168711  0.445495  0.081159 -0.063754 -0.166068  0.438026 -0.074480  0.069444
                                -0.023746 -0.032884  0.108418  0.105971  0.104784

   8.1   2    -0.5850  -16.3561  0.100750 -0.292864 -0.102671 -0.169313  0.003223 -0.011255 -0.225722  0.042522 -0.115075  0.328381
                                 0.034513  0.093086  0.075028 -0.225688  0.183922 -0.114693 -0.119041  0.343323  0.054902 -0.049862
                                 0.149182 -0.026216 -0.113294  0.139223  0.146713

   9.1   2    -0.5553  -17.0630  0.076331 -0.225944 -0.089310  0.262886 -0.156242  0.461345  0.053598  0.115733  0.082015 -0.243598
                                 0.240543  0.122051  0.010252 -0.033270  0.108514  0.067203 -0.052452  0.157266  0.069463  0.019982
                                -0.118468  0.240032  0.046537  0.094707  0.031278

  10.1   2    -0.5064  -16.0419  0.077196 -0.229484  0.201357 -0.028032 -0.009379  0.034482 -0.125423  0.259885 -0.074187  0.235727
                                -0.051637  0.285881 -0.083692  0.255817  0.002348  0.091185  0.072749 -0.230668 -0.115685  0.112087
                                 0.239961  0.139132  0.159216 -0.137027 -0.134446

  11.1   2    -0.4537  -15.4886 -0.045707  0.150674  0.187802  0.072044 -0.018602  0.071967  0.199280  0.194298  0.027522 -0.077968
                                -0.192289  0.120849  0.056585 -0.179799 -0.261176 -0.162564 -0.023801  0.089397 -0.012181 -0.301045
                                 0.128416  0.192390 -0.215956 -0.030686  0.253263

  12.1   2    -0.3923  -14.4161 -0.030591  0.101025  0.014175  0.021941  0.035778 -0.119580  0.115122  0.008573 -0.025916  0.096555
                                -0.192416  0.052664  0.039121 -0.114106 -0.116419  0.356537  0.006385 -0.000257  0.479249 -0.016104
                                 0.161013 -0.009249  0.206097  0.370752 -0.033981

  13.1   2    -0.3436  -14.4187 -0.035547  0.127936 -0.002253 -0.123604 -0.007497  0.038075  0.191055  0.180163  0.010733 -0.036093
                                -0.199457 -0.087978  0.024117 -0.101655  0.124690 -0.294140 -0.014816  0.038065  0.068241  0.417906
                                -0.008473  0.220435 -0.282753  0.203077 -0.379122

  14.1   2    -0.2891  -16.7329  0.005083 -0.033261 -0.382328  0.176249 -0.003176  0.010302  0.394232 -0.181546  0.012114 -0.033369
                                -0.333626  0.106863  0.028239 -0.117333  0.353257  0.067268 -0.011695  0.029899 -0.206663  0.032887
                                 0.335686 -0.022118  0.100680 -0.195287  0.079214

  15.1   2    -0.2838  -16.1763 -0.010001  0.048147  0.125676  0.422773 -0.016973  0.050295 -0.061010 -0.318869  0.011335 -0.032757
                                 0.130205  0.398442 -0.015087  0.051751 -0.151482 -0.191368 -0.006845  0.026649  0.048859  0.154253
                                 0.221631 -0.366366 -0.255656  0.122817 -0.161113

                                   1 2pz     2 2pz     3 2pz     4 2pz     5 2pz  

   1.2   2    -0.3208  -17.2030  0.477394  0.421290  0.420428  0.246078  0.130724

   2.2   2    -0.2088  -15.0408 -0.025339 -0.253387 -0.249915  0.585232  0.591015

                                   1 1s      1 1s      1 2px     1 2py     2 1s      2 1s      2 2px     2 2py     3 1s      3 1s   
                                   3 2px     3 2py     4 1s      4 1s      4 2px     4 2py     5 1s      5 1s      5 2px     5 2py  
                                   6 1s      7 1s      8 1s      9 1s     10 1s   

   1.3   2   -10.0162  -42.2586  0.988946  0.044641 -0.001291 -0.000045 -0.026377 -0.010926 -0.003725  0.004987  0.027122  0.010907
                                -0.001886 -0.005901 -0.038817 -0.009510  0.005617  0.001284  0.000261  0.000670 -0.000400 -0.000007
                                 0.000471  0.000471  0.000461  0.000040  0.000209

   2.3   2   -10.0041  -39.9349  0.039659 -0.005827 -0.005866 -0.000953 -0.012586 -0.000764  0.000008  0.000183  0.011031  0.000633
                                 0.000108 -0.000189  0.989696  0.043533  0.001525 -0.001045 -0.011548 -0.010767  0.004872 -0.004298
                                -0.000084  0.000109 -0.009083 -0.000306 -0.000264

   3.3   2   -10.0028  -41.4697 -0.039204  0.011212 -0.004118 -0.002662 -0.491520 -0.029928  0.005810  0.001548  0.858436  0.042695
                                 0.004140 -0.000311 -0.014383 -0.000804 -0.000062  0.000072  0.001309  0.000336 -0.000176  0.000010
                                 0.007906  0.004668  0.000204 -0.000014  0.000224

   4.3   2   -10.0021  -41.4153  0.010132 -0.003047  0.002377 -0.006775  0.859536  0.033338  0.002407 -0.000540  0.493433  0.013660
                                -0.004826 -0.001302  0.005079  0.000287  0.000037  0.000007  0.000140 -0.000067  0.000030 -0.000067
                                 0.004233 -0.007621 -0.000088 -0.000012  0.000095

   5.3   2    -9.9884  -37.9587  0.000250  0.000224  0.000069 -0.000032  0.000401 -0.000003 -0.000114  0.000009 -0.001113  0.000021
                                -0.000148 -0.000010  0.012807 -0.009738 -0.004781  0.004351  0.990625  0.043641 -0.001302  0.001262
                                 0.000140 -0.000017  0.000062  0.009015  0.008986

   6.3   2    -0.7502  -17.3355 -0.146518  0.387407  0.046448  0.006143 -0.055054  0.144086  0.083600 -0.038596  0.060678 -0.159542
                                 0.065761  0.063204 -0.160993  0.420438 -0.012101 -0.048050 -0.114087  0.295887 -0.070426  0.052753
                                 0.043289  0.037967  0.095000 -0.061857 -0.068527

   7.3   2    -0.6961  -17.9453 -0.017235  0.046667 -0.031810  0.176584 -0.186896  0.504451 -0.080007  0.005801 -0.170234  0.459242
                                 0.092950  0.048900 -0.000739  0.002979 -0.025588  0.032217  0.019856 -0.051916  0.008732  0.002400
                                -0.127602  0.139071  0.014322  0.012220  0.020393

   8.3   2    -0.6638  -16.8611  0.140935 -0.387568  0.080075  0.024596  0.058380 -0.161348 -0.129029  0.053367 -0.102921  0.283876
                                -0.066544 -0.076825 -0.073020  0.193579  0.182489 -0.055397 -0.156058  0.423885 -0.023078  0.048809
                                -0.074719 -0.046192  0.053017 -0.127396 -0.109612

   9.3   2    -0.5280  -14.9706  0.018730 -0.053423  0.191503  0.075905  0.071687 -0.218507 -0.007604  0.007617 -0.042997  0.130221
                                -0.110257 -0.051406 -0.139766  0.427973 -0.058757  0.163993  0.114290 -0.352631 -0.129873  0.173384
                                -0.077593 -0.071076  0.241170  0.176628  0.226881

  10.3   2    -0.4356  -15.5377  0.032728 -0.112172 -0.190736  0.177381 -0.031492  0.106058  0.261367  0.026416  0.060017 -0.195802
                                -0.143328 -0.138176  0.023749 -0.072617  0.142414  0.310604 -0.011275  0.043511  0.295977  0.128294
                                 0.086559  0.142260  0.220485 -0.250799  0.102646

  11.3   2    -0.4070  -15.7113  0.097809 -0.331454  0.037338 -0.143215 -0.067343  0.231571 -0.087913  0.311290  0.062292 -0.216422
                                 0.252819 -0.160862 -0.021505  0.059265  0.179100 -0.056905  0.016875 -0.070533 -0.190711  0.108745
                                 0.326785  0.318517  0.037085  0.148662  0.061703

  12.3   2    -0.3942  -16.0400 -0.032169  0.109353 -0.204171 -0.309946 -0.001611  0.001441 -0.168593 -0.006570  0.016451 -0.051139
                                 0.078898  0.354571  0.003560 -0.020862  0.257642 -0.059493 -0.001447 -0.010837  0.053080  0.355469
                                -0.188748 -0.053525 -0.017168 -0.123675  0.305332

  13.3   2    -0.3703  -16.5245  0.004481 -0.015714  0.109908 -0.121464  0.040339 -0.128521  0.205382  0.436421  0.028463 -0.090120
                                -0.317994  0.266572  0.002576 -0.006067 -0.091642 -0.025241 -0.006061  0.025205 -0.009214 -0.107492
                                -0.307514  0.358575 -0.021429  0.023310 -0.076359

  14.3   2    -0.3474  -16.3391  0.004221 -0.015556 -0.250704  0.238580 -0.024542  0.088817  0.317965 -0.143855  0.009366 -0.026262
                                -0.274934 -0.100213 -0.001725 -0.016794  0.263578 -0.284746 -0.028987  0.079996 -0.347101  0.167596
                                -0.066637  0.009067 -0.206313  0.222726  0.072185

  15.3   2    -0.3076  -14.7008  0.014984 -0.065113 -0.342572 -0.129824 -0.009979  0.030920 -0.058881 -0.093130  0.019471 -0.066910
                                 0.013388  0.202367  0.003606 -0.008388  0.239890  0.306837  0.004905 -0.020290 -0.194182 -0.281851
                                -0.074363 -0.067098  0.366184  0.301278 -0.326166

                                   1 2pz     2 2pz     3 2pz     4 2pz     5 2pz  

   1.4   2    -0.2598  -16.1158  0.493515  0.184969 -0.187867  0.532525  0.383791

   2.4   2    -0.1914  -17.0166  0.006834  0.654960  0.647923  0.002906 -0.010650

   3.4   2    -0.1494  -15.9447 -0.548075 -0.306822  0.323576  0.316284  0.562064


 **********************************************************************************************************************************
 DATASETS  * FILE   NREC   LENGTH (MB)   RECORD NAMES
              1      21        8.27       500      700      610      701      900      950      970     1001     1100     1400   
                                          VAR     GEOM    BASINP    GEOM    SYMINP    ZMAT    AOBASIS   BASIS      S        T 
                                         1410     1200     1210     1080     1600      129      960     1650     1300     1700   
                                           V       H0       H01     AOSYM     SMH      P2S    ABASIS   MOLCAS    ERIS     OPER   
                                         1800   
                                         GRID   
 
              2      10        2.43       500      610      700     1000     1800     1801     2100      701     1001     2101   
                                          VAR    BASINP    GEOM     BASIS    GRID     GRID      RKS     GEOM     BASIS     RKS  
 
 PROGRAMS   *        TOTAL        KS       INT   RESTART
 CPU TIMES  *        22.35     18.66      3.15      0.03
 REAL TIME  *        23.87 SEC
 DISK USED  *        15.85 MB      
 **********************************************************************************************************************************


 PROGRAM * HESSIAN

 *** Long output written to logfile ./dvb_ir.log ***


 Computing numerical hessian using default procedure for command KS-SCF

 Symmetry elements for unique displacements: Z  XY 

 Using no symmetry in wavefunction calculations

 Running default procedure: KS-SCF000
 
 Recomputing wavefunction at reference geometry

 Numerically approximating hessian using central gradient differences

 Task list generated. Total number of displacements:     50

    5 tasks completed, CPU=   452.92 sec, Elapsed=   460.82 sec
   10 tasks completed, CPU=   905.76 sec, Elapsed=   921.18 sec
   15 tasks completed, CPU=  1358.02 sec, Elapsed=  1374.48 sec
   20 tasks completed, CPU=  1799.73 sec, Elapsed=  1816.87 sec
   25 tasks completed, CPU=  2215.20 sec, Elapsed=  2233.19 sec
   30 tasks completed, CPU=  2630.69 sec, Elapsed=  2649.31 sec
   35 tasks completed, CPU=  3072.37 sec, Elapsed=  3091.62 sec
   40 tasks completed, CPU=  3498.31 sec, Elapsed=  3518.21 sec
   45 tasks completed, CPU=  3924.30 sec, Elapsed=  3944.83 sec
   50 tasks completed, CPU=  4350.24 sec, Elapsed=  4371.41 sec

 Numerical KS-SCF000 hessian completed. CPU-time:  4350.24 sec, Elapsed:  4371.41 sec

 KS-SCF hessian saved to record  5300.2

 FREQUENCIES * CALCULATION OF HARMONIC VIBRATIONAL SPECTRA FOR KS-SCF


 Permanent Dipole Moment [debye]
   1-  3    0.000000    0.000000    0.000000

 Dipole Moment Norm    0.0000000 [debye]

 Dipole Moment Derivatives [debye/ang]
                   1             2             3             4             5             6             7             8
         1     0.8808844    -0.3433157     0.0000000    -0.8905025     0.3379538     0.0000000    -0.5436063    -0.5323829
         2    -0.0079898    -0.7158940     0.0000000     0.3964918     0.1417619     0.0000000    -0.4731630    -0.1927555
         3     0.0000000     0.0000000     0.1317792     0.0000000     0.0000000    -0.4360186     0.0000000     0.0000000
                   9            10            11            12            13            14            15            16
         1     0.0000000     0.8808844    -0.3433157     0.0000000    -0.8905025     0.3379538     0.0000000    -0.5436063
         2     0.0000000    -0.0079898    -0.7158940     0.0000000     0.3964918     0.1417619     0.0000000    -0.4731630
         3    -0.3986571     0.0000000     0.0000000     0.1317792     0.0000000     0.0000000    -0.4360186     0.0000000
                  17            18            19            20            21            22            23            24
         1    -0.5323829     0.0000000     0.9412808     1.6119609     0.0000000     0.9412808     1.6119609     0.0000000
         2    -0.1927555     0.0000000     0.1055788    -0.0271270     0.0000000     0.1055788    -0.0271270     0.0000000
         3     0.0000000    -0.3986571     0.0000000     0.0000000    -0.3782465     0.0000000     0.0000000    -0.3782465
                  25            26            27            28            29            30            31            32
         1     0.1713825     0.0547648     0.0000000     0.1713825     0.0547648     0.0000000     0.1789930    -0.0882372
         2     0.0332633     0.3052832     0.0000000     0.0332633     0.3052832     0.0000000    -0.0597445     0.2851735
         3     0.0000000     0.0000000     0.3799730     0.0000000     0.0000000     0.3799730     0.0000000     0.0000000
                  33            34            35            36            37            38            39            40
         1     0.0000000     0.1789930    -0.0882372     0.0000000    -1.2331631    -0.2711391     0.0000000    -1.2331631
         2     0.0000000    -0.0597445     0.2851735     0.0000000     0.2165809    -0.1860832     0.0000000     0.2165809
         3     0.3728419     0.0000000     0.0000000     0.3728419     0.0000000     0.0000000    -0.9817546     0.0000000
                  41            42            43            44            45            46            47            48
         1    -0.2711391     0.0000000    -0.1636302    -0.3115815     0.0000000    -0.1636302    -0.3115815     0.0000000
         2    -0.1860832     0.0000000     0.0923032     0.0976724     0.0000000     0.0923032     0.0976724     0.0000000
         3     0.0000000    -0.9817546     0.0000000     0.0000000     0.3853972     0.0000000     0.0000000     0.3853972
                  49            50            51            52            53            54            55            56
         1     0.5506689     0.2833226     0.0000000     0.5506689     0.2833226     0.0000000     0.0745637    -0.7445469
         2    -0.2091730     0.1326045     0.0000000    -0.2091730     0.1326045     0.0000000    -0.1049635     0.1799426
         3     0.0000000     0.0000000     0.4522772     0.0000000     0.0000000     0.4522772     0.0000000     0.0000000
                  57            58            59            60
         1     0.0000000     0.0745637    -0.7445469     0.0000000
         2     0.0000000    -0.1049635     0.1799426     0.0000000
         3     0.4730019     0.0000000     0.0000000     0.4730019

 Projecting out rotations and translations

 Force Constants (Second Derivatives of the Energy) in [a.u.]
                             CX1         CY1         CZ1         CX2         CY2     
           CX1           0.7056367
           CY1           0.0038762   0.7253361
           CZ1           0.0000000   0.0000000   0.1578531
           CX2          -0.2088937   0.0528863   0.0000000   0.7584159
           CY2           0.1378638  -0.2647430   0.0000000   0.0559175   0.8220900
           CZ2           0.0000000   0.0000000  -0.0665624   0.0000000   0.0000000
           CX3          -0.0549275   0.0803662   0.0000000  -0.3781215  -0.0885166
           CY3           0.0102368   0.0611129   0.0000000   0.0140897  -0.1538632
           CZ3           0.0000000   0.0000000   0.0070055   0.0000000   0.0000000
           CX4           0.0103726   0.0157877   0.0000000  -0.0159427  -0.0370029
           CY4           0.0157877  -0.0838975   0.0000000  -0.1087720   0.0211093
           CZ4           0.0000000   0.0000000  -0.0089504   0.0000000   0.0000000
           CX5          -0.0159427  -0.1087720   0.0000000  -0.0767577   0.0271855
           CY5          -0.0370029   0.0211093   0.0000000   0.0271855  -0.0083171
           CZ5           0.0000000   0.0000000   0.0069223   0.0000000   0.0000000
           CX6          -0.1549202  -0.0166684   0.0000000   0.0748847  -0.0059136
           CY6          -0.0975645  -0.3190492   0.0000000   0.0531566  -0.0599541
           CZ6           0.0000000   0.0000000  -0.0674648   0.0000000   0.0000000
           CX7          -0.2373731  -0.0267896   0.0000000  -0.0446672   0.0064824
           CY7          -0.0563727  -0.1235501   0.0000000   0.0318107   0.0064733
           CZ7           0.0000000   0.0000000  -0.0633595   0.0000000   0.0000000
           CX8          -0.0061040  -0.0003407   0.0000000   0.0101581  -0.0016934
           CY8           0.0015491  -0.0002158   0.0000000  -0.0008212  -0.0065011
           CZ8           0.0000000   0.0000000  -0.0009936   0.0000000   0.0000000
           HX9           0.0127482  -0.0139884   0.0000000  -0.0015329  -0.0026161
           HY9           0.0223411  -0.0148267   0.0000000  -0.0041068  -0.0036544
           HZ9           0.0000000   0.0000000   0.0027695   0.0000000   0.0000000
           HX10         -0.0039964  -0.0032962   0.0000000  -0.0136022   0.0284603
           HY10         -0.0018497   0.0001400   0.0000000  -0.0112980   0.0089700
           HZ10          0.0000000   0.0000000   0.0088429   0.0000000   0.0000000
           HX11          0.0099737   0.0234511   0.0000000  -0.1066988  -0.1102131
           HY11         -0.0134632  -0.0147434   0.0000000  -0.1100406  -0.3657475
           HZ11          0.0000000   0.0000000   0.0024374   0.0000000   0.0000000
           HX12         -0.0052131   0.0014719   0.0000000  -0.0004640   0.0006119
           HY12          0.0000891   0.0011656   0.0000000   0.0008548   0.0010631
           HZ12          0.0000000   0.0000000   0.0088043   0.0000000   0.0000000
           CX13         -0.0483271   0.0216126   0.0000000   0.0027962  -0.0069767
           CY13          0.0129845   0.0173272   0.0000000  -0.0070982   0.0009991
           CZ13          0.0000000   0.0000000   0.0054800   0.0000000   0.0000000
           CX14          0.0018392   0.0008483   0.0000000  -0.0017154   0.0014458
           CY14         -0.0019466   0.0001132   0.0000000   0.0029658  -0.0006582
           CZ14          0.0000000   0.0000000  -0.0000399   0.0000000   0.0000000
           HX15         -0.0067306  -0.0318706   0.0000000   0.0019628  -0.0021945
           HY15          0.0036729  -0.0025685   0.0000000   0.0024916   0.0014903
           HZ15          0.0000000   0.0000000   0.0023643   0.0000000   0.0000000
           HX16          0.0001548   0.0000582   0.0000000   0.0003273  -0.0017293
           HY16          0.0000473   0.0001793   0.0000000   0.0001670  -0.0001406
           HZ16          0.0000000   0.0000000   0.0001126   0.0000000   0.0000000
           HX17          0.0001304   0.0001657   0.0000000   0.0000367  -0.0002654
           HY17         -0.0000539   0.0000464   0.0000000  -0.0000480   0.0002221
           HZ17          0.0000000   0.0000000   0.0001527   0.0000000   0.0000000
           HX18         -0.0000627   0.0027563   0.0000000  -0.0003986  -0.0005209
           HY18          0.0012931  -0.0033512   0.0000000   0.0008836   0.0008182
           HZ18          0.0000000   0.0000000   0.0129260   0.0000000   0.0000000
           HX19         -0.0000501   0.0000934   0.0000000   0.0001284  -0.0002281
           HY19         -0.0001255  -0.0001110   0.0000000  -0.0000467   0.0004159
           HZ19          0.0000000   0.0000000  -0.0000817   0.0000000   0.0000000
           HX20          0.0016857  -0.0016480   0.0000000   0.0000846  -0.0000966
           HY20         -0.0013627   0.0005263   0.0000000  -0.0001776  -0.0000721
           HZ20          0.0000000   0.0000000  -0.0082183   0.0000000   0.0000000
                             CZ2         CX3         CY3         CZ3         CX4     
           CZ2           0.1413175
           CX3           0.0000000   0.7967453
           CY3           0.0000000  -0.0662392   0.7844381
           CZ3          -0.0623585   0.0000000   0.0000000   0.1414412
           CX4           0.0000000  -0.1549202  -0.0975645   0.0000000   0.7056367
           CY4           0.0000000  -0.0166684  -0.3190492   0.0000000   0.0038762
           CZ4           0.0069223   0.0000000   0.0000000  -0.0674648   0.0000000
           CX5           0.0000000   0.0748847   0.0531566   0.0000000  -0.2088937
           CY5           0.0000000  -0.0059136  -0.0599541   0.0000000   0.1378638
           CZ5          -0.0071910   0.0000000   0.0000000   0.0064858   0.0000000
           CX6           0.0000000  -0.0510934  -0.0423921   0.0000000  -0.0549275
           CY6           0.0000000  -0.0423921  -0.0318246   0.0000000   0.0102368
           CZ6           0.0064858   0.0000000   0.0000000  -0.0064742   0.0000000
           CX7           0.0000000   0.0068690   0.0062129   0.0000000  -0.0061040
           CY7           0.0000000   0.0009708  -0.0049238   0.0000000   0.0015491
           CZ7           0.0040341   0.0000000   0.0000000   0.0074385   0.0000000
           CX8           0.0000000  -0.0252148  -0.0212736   0.0000000  -0.2373731
           CY8           0.0000000  -0.0333799   0.0012909   0.0000000  -0.0563727
           CZ8           0.0068373   0.0000000   0.0000000   0.0027518   0.0000000
           HX9           0.0000000   0.0001245  -0.0009256   0.0000000  -0.0039964
           HY9           0.0000000  -0.0010706   0.0004185   0.0000000  -0.0018497
           HZ9           0.0077161   0.0000000   0.0000000  -0.0009388   0.0000000
           HX10          0.0000000  -0.1993841   0.1660849   0.0000000   0.0127482
           HY10          0.0000000   0.1670722  -0.2747234   0.0000000   0.0223411
           HZ10          0.0037045   0.0000000   0.0000000  -0.0404489   0.0000000
           HX11          0.0000000  -0.0059259  -0.0331290   0.0000000  -0.0052131
           HY11          0.0000000   0.0063190   0.0017052   0.0000000   0.0000891
           HZ11         -0.0399316   0.0000000   0.0000000   0.0033487   0.0000000
           HX12          0.0000000  -0.0036553   0.0024876   0.0000000   0.0099737
           HY12          0.0000000   0.0040197  -0.0015737   0.0000000  -0.0134632
           HZ12         -0.0008947   0.0000000   0.0000000   0.0073885   0.0000000
           CX13          0.0000000  -0.0032731  -0.0009779   0.0000000   0.0018392
           CY13          0.0000000   0.0015393   0.0019908   0.0000000  -0.0019466
           CZ13          0.0014276   0.0000000   0.0000000  -0.0001235   0.0000000
           CX14          0.0000000   0.0037727   0.0063666   0.0000000  -0.0483271
           CY14          0.0000000  -0.0050036  -0.0049908   0.0000000   0.0129845
           CZ14         -0.0004420   0.0000000   0.0000000   0.0004285   0.0000000
           HX15          0.0000000   0.0001629   0.0001520   0.0000000   0.0001548
           HY15          0.0000000  -0.0000315  -0.0001385   0.0000000   0.0000473
           HZ15         -0.0009830   0.0000000   0.0000000  -0.0000624   0.0000000
           HX16          0.0000000  -0.0052853   0.0018524   0.0000000  -0.0067306
           HY16          0.0000000   0.0000883   0.0006975   0.0000000   0.0036729
           HZ16          0.0000459   0.0000000   0.0000000   0.0024860   0.0000000
           HX17          0.0000000   0.0004822   0.0002180   0.0000000  -0.0000627
           HY17          0.0000000  -0.0001780  -0.0005856   0.0000000   0.0012931
           HZ17         -0.0003327   0.0000000   0.0000000  -0.0004335   0.0000000
           HX18          0.0000000  -0.0001762   0.0004362   0.0000000   0.0001304
           HY18          0.0000000   0.0000185  -0.0003080   0.0000000  -0.0000539
           HZ18          0.0000276   0.0000000   0.0000000  -0.0009041   0.0000000
           HX19          0.0000000  -0.0011959   0.0012757   0.0000000   0.0016857
           HY19          0.0000000  -0.0009870   0.0004876   0.0000000  -0.0013627
           HZ19          0.0001227   0.0000000   0.0000000   0.0001517   0.0000000
           HX20          0.0000000   0.0001321  -0.0000676   0.0000000  -0.0000501
           HY20          0.0000000  -0.0000134  -0.0002067   0.0000000  -0.0001255
           HZ20          0.0000543   0.0000000   0.0000000   0.0002822   0.0000000
                             CY4         CZ4         CX5         CY5         CZ5     
           CY4           0.7253361
           CZ4           0.0000000   0.1578531
           CX5           0.0528863   0.0000000   0.7584159
           CY5          -0.2647430   0.0000000   0.0559175   0.8220900
           CZ5           0.0000000  -0.0665624   0.0000000   0.0000000   0.1413175
           CX6           0.0803662   0.0000000  -0.3781215  -0.0885166   0.0000000
           CY6           0.0611129   0.0000000   0.0140897  -0.1538632   0.0000000
           CZ6           0.0000000   0.0070055   0.0000000   0.0000000  -0.0623585
           CX7          -0.0003407   0.0000000   0.0101581  -0.0016934   0.0000000
           CY7          -0.0002158   0.0000000  -0.0008212  -0.0065011   0.0000000
           CZ7           0.0000000  -0.0009936   0.0000000   0.0000000   0.0068373
           CX8          -0.0267896   0.0000000  -0.0446672   0.0064824   0.0000000
           CY8          -0.1235501   0.0000000   0.0318107   0.0064733   0.0000000
           CZ8           0.0000000  -0.0633595   0.0000000   0.0000000   0.0040341
           HX9          -0.0032962   0.0000000  -0.0136022   0.0284603   0.0000000
           HY9           0.0001400   0.0000000  -0.0112980   0.0089700   0.0000000
           HZ9           0.0000000   0.0088429   0.0000000   0.0000000   0.0037045
           HX10         -0.0139884   0.0000000  -0.0015329  -0.0026161   0.0000000
           HY10         -0.0148267   0.0000000  -0.0041068  -0.0036544   0.0000000
           HZ10          0.0000000   0.0027695   0.0000000   0.0000000   0.0077161
           HX11          0.0014719   0.0000000  -0.0004640   0.0006119   0.0000000
           HY11          0.0011656   0.0000000   0.0008548   0.0010631   0.0000000
           HZ11          0.0000000   0.0088043   0.0000000   0.0000000  -0.0008947
           HX12          0.0234511   0.0000000  -0.1066988  -0.1102131   0.0000000
           HY12         -0.0147434   0.0000000  -0.1100406  -0.3657475   0.0000000
           HZ12          0.0000000   0.0024374   0.0000000   0.0000000  -0.0399316
           CX13          0.0008483   0.0000000  -0.0017154   0.0014458   0.0000000
           CY13          0.0001132   0.0000000   0.0029658  -0.0006582   0.0000000
           CZ13          0.0000000  -0.0000399   0.0000000   0.0000000  -0.0004420
           CX14          0.0216126   0.0000000   0.0027962  -0.0069767   0.0000000
           CY14          0.0173272   0.0000000  -0.0070982   0.0009991   0.0000000
           CZ14          0.0000000   0.0054800   0.0000000   0.0000000   0.0014276
           HX15          0.0000582   0.0000000   0.0003273  -0.0017293   0.0000000
           HY15          0.0001793   0.0000000   0.0001670  -0.0001406   0.0000000
           HZ15          0.0000000   0.0001126   0.0000000   0.0000000   0.0000459
           HX16         -0.0318706   0.0000000   0.0019628  -0.0021945   0.0000000
           HY16         -0.0025685   0.0000000   0.0024916   0.0014903   0.0000000
           HZ16          0.0000000   0.0023643   0.0000000   0.0000000  -0.0009830
           HX17          0.0027563   0.0000000  -0.0003986  -0.0005209   0.0000000
           HY17         -0.0033512   0.0000000   0.0008836   0.0008182   0.0000000
           HZ17          0.0000000   0.0129260   0.0000000   0.0000000   0.0000276
           HX18          0.0001657   0.0000000   0.0000367  -0.0002654   0.0000000
           HY18          0.0000464   0.0000000  -0.0000480   0.0002221   0.0000000
           HZ18          0.0000000   0.0001527   0.0000000   0.0000000  -0.0003327
           HX19         -0.0016480   0.0000000   0.0000846  -0.0000966   0.0000000
           HY19          0.0005263   0.0000000  -0.0001776  -0.0000721   0.0000000
           HZ19          0.0000000  -0.0082183   0.0000000   0.0000000   0.0000543
           HX20          0.0000934   0.0000000   0.0001284  -0.0002281   0.0000000
           HY20         -0.0001110   0.0000000  -0.0000467   0.0004159   0.0000000
           HZ20          0.0000000  -0.0000817   0.0000000   0.0000000   0.0001227
                             CX6         CY6         CZ6         CX7         CY7     
           CX6           0.7967453
           CY6          -0.0662392   0.7844381
           CZ6           0.0000000   0.0000000   0.1414412
           CX7          -0.0252148  -0.0212736   0.0000000   0.7716852
           CY7          -0.0333799   0.0012909   0.0000000  -0.1420004   0.8788121
           CZ7           0.0000000   0.0000000   0.0027518   0.0000000   0.0000000
           CX8           0.0068690   0.0062129   0.0000000   0.0033904  -0.0009521
           CY8           0.0009708  -0.0049238   0.0000000  -0.0009521  -0.0001859
           CZ8           0.0000000   0.0000000   0.0074385   0.0000000   0.0000000
           HX9          -0.1993841   0.1660849   0.0000000  -0.0000540   0.0011651
           HY9           0.1670722  -0.2747234   0.0000000   0.0017303   0.0013183
           HZ9           0.0000000   0.0000000  -0.0404489   0.0000000   0.0000000
           HX10          0.0001245  -0.0009256   0.0000000  -0.0003706   0.0013952
           HY10         -0.0010706   0.0004185   0.0000000  -0.0001843   0.0004588
           HZ10          0.0000000   0.0000000  -0.0009388   0.0000000   0.0000000
           HX11         -0.0036553   0.0024876   0.0000000   0.0016465   0.0020842
           HY11          0.0040197  -0.0015737   0.0000000  -0.0022478   0.0015439
           HZ11          0.0000000   0.0000000   0.0073885   0.0000000   0.0000000
           HX12         -0.0059259  -0.0331290   0.0000000   0.0002062  -0.0015503
           HY12          0.0063190   0.0017052   0.0000000   0.0000905   0.0000699
           HZ12          0.0000000   0.0000000   0.0033487   0.0000000   0.0000000
           CX13          0.0037727   0.0063666   0.0000000  -0.3920968   0.2546178
           CY13         -0.0050036  -0.0049908   0.0000000   0.2319283  -0.3684617
           CZ13          0.0000000   0.0000000   0.0004285   0.0000000   0.0000000
           CX14         -0.0032731  -0.0009779   0.0000000  -0.0008838   0.0002572
           CY14          0.0015393   0.0019908   0.0000000   0.0011784   0.0000904
           CZ14          0.0000000   0.0000000  -0.0001235   0.0000000   0.0000000
           HX15         -0.0052853   0.0018524   0.0000000  -0.0826183  -0.0759710
           HY15          0.0000883   0.0006975   0.0000000  -0.0730410  -0.3828381
           HZ15          0.0000000   0.0000000   0.0024860   0.0000000   0.0000000
           HX16          0.0001629   0.0001520   0.0000000   0.0000154   0.0000965
           HY16         -0.0000315  -0.0001385   0.0000000   0.0000932   0.0000081
           HZ16          0.0000000   0.0000000  -0.0000624   0.0000000   0.0000000
           HX17         -0.0001762   0.0004362   0.0000000  -0.0001334  -0.0000731
           HY17          0.0000185  -0.0003080   0.0000000  -0.0000219  -0.0000628
           HZ17          0.0000000   0.0000000  -0.0009041   0.0000000   0.0000000
           HX18          0.0004822   0.0002180   0.0000000  -0.0159132  -0.0124856
           HY18         -0.0001780  -0.0005856   0.0000000   0.0286317   0.0099157
           HZ18          0.0000000   0.0000000  -0.0004335   0.0000000   0.0000000
           HX19          0.0001321  -0.0000676   0.0000000  -0.0000252   0.0001325
           HY19         -0.0000134  -0.0002067   0.0000000   0.0001794   0.0001115
           HZ19          0.0000000   0.0000000   0.0002822   0.0000000   0.0000000
           HX20         -0.0011959   0.0012757   0.0000000   0.0114836   0.0295271
           HY20         -0.0009870   0.0004876   0.0000000  -0.0079823  -0.0133535
           HZ20          0.0000000   0.0000000   0.0001517   0.0000000   0.0000000
                             CZ7         CX8         CY8         CZ8         HX9     
           CZ7           0.1384083
           CX8           0.0000000   0.7716852
           CY8           0.0000000  -0.1420004   0.8788121
           CZ8          -0.0010484   0.0000000   0.0000000   0.1384083
           HX9           0.0000000  -0.0003706   0.0013952   0.0000000   0.2065613
           HY9           0.0000000  -0.0001843   0.0004588   0.0000000  -0.1736409
           HZ9          -0.0039080   0.0000000   0.0000000   0.0000408   0.0000000
           HX10          0.0000000  -0.0000540   0.0011651   0.0000000   0.0000042
           HY10          0.0000000   0.0017303   0.0013183   0.0000000   0.0002178
           HZ10          0.0000408   0.0000000   0.0000000  -0.0039080   0.0000000
           HX11          0.0000000   0.0002062  -0.0015503   0.0000000   0.0005981
           HY11          0.0000000   0.0000905   0.0000699   0.0000000  -0.0007245
           HZ11         -0.0039005   0.0000000   0.0000000   0.0001610   0.0000000
           HX12          0.0000000   0.0016465   0.0020842   0.0000000   0.0018381
           HY12          0.0000000  -0.0022478   0.0015439   0.0000000   0.0001575
           HZ12          0.0001610   0.0000000   0.0000000  -0.0039005   0.0000000
           CX13          0.0000000  -0.0008838   0.0002572   0.0000000  -0.0008967
           CY13          0.0000000   0.0011784   0.0000904   0.0000000  -0.0020280
           CZ13         -0.0524828   0.0000000   0.0000000   0.0000908   0.0000000
           CX14          0.0000000  -0.3920968   0.2546178   0.0000000  -0.0003786
           CY14          0.0000000   0.2319283  -0.3684617   0.0000000  -0.0002633
           CZ14          0.0000908   0.0000000   0.0000000  -0.0524828   0.0000000
           HX15          0.0000000   0.0000154   0.0000965   0.0000000  -0.0000125
           HY15          0.0000000   0.0000932   0.0000081   0.0000000   0.0000152
           HZ15         -0.0444724   0.0000000   0.0000000   0.0000189   0.0000000
           HX16          0.0000000  -0.0826183  -0.0759710   0.0000000  -0.0000230
           HY16          0.0000000  -0.0730410  -0.3828381   0.0000000  -0.0000101
           HZ16          0.0000189   0.0000000   0.0000000  -0.0444724   0.0000000
           HX17          0.0000000  -0.0159132  -0.0124856   0.0000000  -0.0000454
           HY17          0.0000000   0.0286317   0.0099157   0.0000000   0.0001249
           HZ17         -0.0000036   0.0000000   0.0000000   0.0056301   0.0000000
           HX18          0.0000000  -0.0001334  -0.0000731   0.0000000   0.0001480
           HY18          0.0000000  -0.0000219  -0.0000628   0.0000000   0.0002597
           HZ18          0.0056301   0.0000000   0.0000000  -0.0000036   0.0000000
           HX19          0.0000000   0.0114836   0.0295271   0.0000000   0.0000110
           HY19          0.0000000  -0.0079823  -0.0133535   0.0000000  -0.0000281
           HZ19          0.0000561   0.0000000   0.0000000   0.0047012   0.0000000
           HX20          0.0000000  -0.0000252   0.0001325   0.0000000  -0.0017370
           HY20          0.0000000   0.0001794   0.0001115   0.0000000  -0.0003593
           HZ20          0.0047012   0.0000000   0.0000000   0.0000561   0.0000000
                             HY9         HZ9         HX10        HY10        HZ10    
           HY9           0.2806644
           HZ9           0.0000000   0.0278336
           HX10          0.0002178   0.0000000   0.2065613
           HY10         -0.0000461   0.0000000  -0.1736409   0.2806644
           HZ10          0.0000000  -0.0011790   0.0000000   0.0000000   0.0278336
           HX11          0.0011420   0.0000000   0.0018381  -0.0000204   0.0000000
           HY11         -0.0007773   0.0000000   0.0001575   0.0012161   0.0000000
           HZ11          0.0000000   0.0001523   0.0000000   0.0000000  -0.0051127
           HX12         -0.0000204   0.0000000   0.0005981   0.0011420   0.0000000
           HY12          0.0012161   0.0000000  -0.0007245  -0.0007773   0.0000000
           HZ12          0.0000000  -0.0051127   0.0000000   0.0000000   0.0001523
           CX13          0.0005939   0.0000000  -0.0003786  -0.0001015   0.0000000
           CY13         -0.0000300   0.0000000  -0.0002633  -0.0001160   0.0000000
           CZ13          0.0000000   0.0002714   0.0000000   0.0000000  -0.0001100
           CX14         -0.0001015   0.0000000  -0.0008967   0.0005939   0.0000000
           CY14         -0.0001160   0.0000000  -0.0020280  -0.0000300   0.0000000
           CZ14          0.0000000  -0.0001100   0.0000000   0.0000000   0.0002714
           HX15          0.0000141   0.0000000  -0.0000230   0.0000286   0.0000000
           HY15          0.0001253   0.0000000  -0.0000101   0.0000445   0.0000000
           HZ15          0.0000000  -0.0000601   0.0000000   0.0000000   0.0000111
           HX16          0.0000286   0.0000000  -0.0000125   0.0000141   0.0000000
           HY16          0.0000445   0.0000000   0.0000152   0.0001253   0.0000000
           HZ16          0.0000000   0.0000111   0.0000000   0.0000000  -0.0000601
           HX17         -0.0000476   0.0000000   0.0001480   0.0000360   0.0000000
           HY17          0.0000345   0.0000000   0.0002597   0.0003249   0.0000000
           HZ17          0.0000000   0.0000084   0.0000000   0.0000000   0.0001381
           HX18          0.0000360   0.0000000  -0.0000454  -0.0000476   0.0000000
           HY18          0.0003249   0.0000000   0.0001249   0.0000345   0.0000000
           HZ18          0.0000000   0.0001381   0.0000000   0.0000000   0.0000084
           HX19          0.0000021   0.0000000  -0.0017370  -0.0008582   0.0000000
           HY19          0.0000047   0.0000000  -0.0003593   0.0004538   0.0000000
           HZ19          0.0000000  -0.0000015   0.0000000   0.0000000   0.0002704
           HX20         -0.0008582   0.0000000   0.0000110   0.0000021   0.0000000
           HY20          0.0004538   0.0000000  -0.0000281   0.0000047   0.0000000
           HZ20          0.0000000   0.0002704   0.0000000   0.0000000  -0.0000015
                             HX11        HY11        HZ11        HX12        HY12    
           HX11          0.1082927
           HY11          0.1146498   0.3759303
           HZ11          0.0000000   0.0000000   0.0284455
           HX12          0.0001269  -0.0001537   0.0000000   0.1082927
           HY12         -0.0001537  -0.0001446   0.0000000   0.1146498   0.3759303
           HZ12          0.0000000   0.0000000  -0.0010638   0.0000000   0.0000000
           CX13         -0.0000743  -0.0001100   0.0000000   0.0000600  -0.0000567
           CY13         -0.0002870   0.0001715   0.0000000  -0.0000356   0.0000074
           CZ13          0.0000000   0.0000000   0.0001196   0.0000000   0.0000000
           CX14          0.0000600  -0.0000567   0.0000000  -0.0000743  -0.0001100
           CY14         -0.0000356   0.0000074   0.0000000  -0.0002870   0.0001715
           CZ14          0.0000000   0.0000000   0.0000293   0.0000000   0.0000000
           HX15         -0.0002570   0.0006012   0.0000000  -0.0004815  -0.0000052
           HY15         -0.0004585   0.0000856   0.0000000  -0.0000559   0.0000132
           HZ15          0.0000000   0.0000000  -0.0000228   0.0000000   0.0000000
           HX16         -0.0004815  -0.0000052   0.0000000  -0.0002570   0.0006012
           HY16         -0.0000559   0.0000132   0.0000000  -0.0004585   0.0000856
           HZ16          0.0000000   0.0000000  -0.0002177   0.0000000   0.0000000
           HX17         -0.0000086   0.0000241   0.0000000  -0.0000032   0.0001208
           HY17          0.0000623   0.0000269   0.0000000   0.0000165   0.0000568
           HZ17          0.0000000   0.0000000   0.0000051   0.0000000   0.0000000
           HX18         -0.0000032   0.0001208   0.0000000  -0.0000086   0.0000241
           HY18          0.0000165   0.0000568   0.0000000   0.0000623   0.0000269
           HZ18          0.0000000   0.0000000   0.0003255   0.0000000   0.0000000
           HX19         -0.0000509  -0.0000300   0.0000000   0.0000903  -0.0000946
           HY19         -0.0000293  -0.0000066   0.0000000  -0.0000444  -0.0000624
           HZ19          0.0000000   0.0000000   0.0000092   0.0000000   0.0000000
           HX20          0.0000903  -0.0000946   0.0000000  -0.0000509  -0.0000300
           HY20         -0.0000444  -0.0000624   0.0000000  -0.0000293  -0.0000066
           HZ20          0.0000000   0.0000000  -0.0000827   0.0000000   0.0000000
                             HZ12        CX13        CY13        CZ13        CX14    
           HZ12          0.0284455
           CX13          0.0000000   0.8943127
           CY13          0.0000000  -0.1074497   0.8707451
           CZ13          0.0000293   0.0000000   0.0000000   0.1139528
           CX14          0.0000000   0.0002247  -0.0007619   0.0000000   0.8943127
           CY14          0.0000000  -0.0007619   0.0004728   0.0000000  -0.1074497
           CZ14          0.0001196   0.0000000   0.0000000  -0.0000055   0.0000000
           HX15          0.0000000   0.0081337   0.0322178   0.0000000  -0.0000855
           HY15          0.0000000  -0.0095538  -0.0155570   0.0000000   0.0000069
           HZ15         -0.0002177   0.0000000   0.0000000   0.0056744   0.0000000
           HX16          0.0000000  -0.0000855  -0.0000726   0.0000000   0.0081337
           HY16          0.0000000   0.0000069  -0.0000368   0.0000000  -0.0095538
           HZ16         -0.0000228   0.0000000   0.0000000  -0.0000057   0.0000000
           HX17          0.0000000   0.0000153   0.0000731   0.0000000  -0.3801387
           HY17          0.0000000   0.0000372   0.0000316   0.0000000  -0.1029693
           HZ17          0.0003255   0.0000000   0.0000000  -0.0000146   0.0000000
           HX18          0.0000000  -0.3801387  -0.0997425   0.0000000   0.0000153
           HY18          0.0000000  -0.1029693  -0.1011311   0.0000000   0.0000372
           HZ18          0.0000051   0.0000000   0.0000000  -0.0354091   0.0000000
           HX19          0.0000000   0.0000109   0.0002230   0.0000000  -0.0832953
           HY19          0.0000000  -0.0001007  -0.0001602   0.0000000  -0.0567280
           HZ19         -0.0000827   0.0000000   0.0000000   0.0000092   0.0000000
           HX20          0.0000000  -0.0832953  -0.0584213   0.0000000   0.0000109
           HY20          0.0000000  -0.0567280  -0.4008073   0.0000000  -0.0001007
           HZ20          0.0000092   0.0000000   0.0000000  -0.0388504   0.0000000
                             CY14        CZ14        HX15        HY15        HZ15    
           CY14          0.8707451
           CZ14          0.0000000   0.1139528
           HX15         -0.0000726   0.0000000   0.0868025
           HY15         -0.0000368   0.0000000   0.0746567   0.3971918
           HZ15          0.0000000  -0.0000057   0.0000000   0.0000000   0.0303413
           HX16          0.0322178   0.0000000   0.0000026  -0.0000245   0.0000000
           HY16         -0.0155570   0.0000000  -0.0000245   0.0000225   0.0000000
           HZ16          0.0000000   0.0056744   0.0000000   0.0000000   0.0000107
           HX17         -0.0997425   0.0000000   0.0000108  -0.0000304   0.0000000
           HY17         -0.1011311   0.0000000   0.0000121   0.0000215   0.0000000
           HZ17          0.0000000  -0.0354091   0.0000000   0.0000000   0.0000042
           HX18          0.0000731   0.0000000   0.0016486  -0.0001358   0.0000000
           HY18          0.0000316   0.0000000  -0.0000560   0.0019410   0.0000000
           HZ18          0.0000000  -0.0000146   0.0000000   0.0000000  -0.0092965
           HX19         -0.0584213   0.0000000  -0.0000113   0.0000051   0.0000000
           HY19         -0.4008073   0.0000000  -0.0000219   0.0000193   0.0000000
           HZ19          0.0000000  -0.0388504   0.0000000   0.0000000  -0.0000027
           HX20          0.0002230   0.0000000  -0.0037163   0.0020973   0.0000000
           HY20         -0.0001602   0.0000000   0.0022559  -0.0005606   0.0000000
           HZ20          0.0000000   0.0000092   0.0000000   0.0000000   0.0140535
                             HX16        HY16        HZ16        HX17        HY17    
           HX16          0.0868025
           HY16          0.0746567   0.3971918
           HZ16          0.0000000   0.0000000   0.0303413
           HX17          0.0016486  -0.0001358   0.0000000   0.3924983
           HY17         -0.0000560   0.0019410   0.0000000   0.1019729   0.0932867
           HZ17          0.0000000   0.0000000  -0.0092965   0.0000000   0.0000000
           HX18          0.0000108  -0.0000304   0.0000000   0.0000051  -0.0000174
           HY18          0.0000121   0.0000215   0.0000000  -0.0000174  -0.0000114
           HZ18          0.0000000   0.0000000   0.0000042   0.0000000   0.0000000
           HX19         -0.0037163   0.0020973   0.0000000   0.0018953  -0.0299870
           HY19          0.0022559  -0.0005606   0.0000000   0.0075098  -0.0012976
           HZ19          0.0000000   0.0000000   0.0140535   0.0000000   0.0000000
           HX20         -0.0000113   0.0000051   0.0000000   0.0000093   0.0000190
           HY20         -0.0000219   0.0000193   0.0000000   0.0000058   0.0000214
           HZ20          0.0000000   0.0000000  -0.0000027   0.0000000   0.0000000
                             HZ17        HX18        HY18        HZ18        HX19    
           HZ17          0.0249023
           HX18          0.0000000   0.3924983
           HY18          0.0000000   0.1019729   0.0932867
           HZ18          0.0000274   0.0000000   0.0000000   0.0249023
           HX19          0.0000000   0.0000093   0.0000190   0.0000000   0.0745391
           HY19          0.0000000   0.0000058   0.0000214   0.0000000   0.0580491
           HZ19          0.0022662   0.0000000   0.0000000  -0.0000196   0.0000000
           HX20          0.0000000   0.0018953  -0.0299870   0.0000000   0.0000119
           HY20          0.0000000   0.0075098  -0.0012976   0.0000000   0.0000072
           HZ20         -0.0000196   0.0000000   0.0000000   0.0022662   0.0000000
                             HY19        HZ19        HX20        HY20        HZ20    
           HY19          0.4146429
           HZ19          0.0000000   0.0252562
           HX20          0.0000072   0.0000000   0.0745391
           HY20         -0.0000453   0.0000000   0.0580491   0.4146429
           HZ20          0.0000000   0.0000240   0.0000000   0.0000000   0.0252562


 Atomic Masses
   1- 10   12.011000   12.011000   12.011000   12.011000   12.011000   12.011000   12.011000   12.011000    1.007940    1.007940
  11- 20    1.007940    1.007940   12.011000   12.011000    1.007940    1.007940    1.007940    1.007940    1.007940    1.007940

 Mass weighted Second Derivative Matrix
                             CX1         CY1         CZ1         CX2         CY2     
           CX1           0.0587492
           CY1           0.0003227   0.0603893
           CZ1           0.0000000   0.0000000   0.0131424
           CX2          -0.0173919   0.0044032   0.0000000   0.0631434
           CY2           0.0114781  -0.0220417   0.0000000   0.0046555   0.0684448
           CZ2           0.0000000   0.0000000  -0.0055418   0.0000000   0.0000000
           CX3          -0.0045731   0.0066910   0.0000000  -0.0314813  -0.0073696
           CY3           0.0008523   0.0050881   0.0000000   0.0011731  -0.0128102
           CZ3           0.0000000   0.0000000   0.0005833   0.0000000   0.0000000
[...]
           CY13             0.01377    -0.00010    -0.00041     0.00017     0.00030
           CZ13             0.00000     0.00000     0.00000     0.00000     0.00000
           CX14             0.00975    -0.00066    -0.00082     0.00088    -0.00085
           CY14            -0.01377    -0.00010     0.00041     0.00017    -0.00030
           CZ14             0.00000     0.00000     0.00000     0.00000     0.00000
           HX15             0.14497    -0.00751    -0.00631    -0.00065    -0.00009
           HY15             0.63261    -0.03846    -0.03004    -0.00105     0.00571
           HZ15             0.00000     0.00000     0.00000     0.00000     0.00000
           HX16            -0.14497    -0.00751     0.00631    -0.00065     0.00009
           HY16            -0.63261    -0.03846     0.03004    -0.00105    -0.00571
           HZ16             0.00000     0.00000     0.00000     0.00000     0.00000
           HX17            -0.08826     0.01063     0.00673    -0.00888     0.00989
           HY17            -0.02788     0.00316     0.00220    -0.00275     0.00282
           HZ17             0.00000     0.00000     0.00000     0.00000     0.00000
           HX18             0.08826     0.01063    -0.00673    -0.00888    -0.00989
           HY18             0.02788     0.00316    -0.00220    -0.00275    -0.00282
           HZ18             0.00000     0.00000     0.00000     0.00000     0.00000
           HX19             0.02642    -0.00102    -0.00130     0.00074    -0.00059
           HY19             0.14205    -0.00500    -0.00643     0.00305    -0.00165
           HZ19             0.00000     0.00000     0.00000     0.00000     0.00000
           HX20            -0.02642    -0.00102     0.00130     0.00074     0.00059
           HY20            -0.14205    -0.00500     0.00643     0.00305     0.00165
           HZ20             0.00000     0.00000     0.00000     0.00000     0.00000
 
                             51 Bu       52 Ag 
 Wavenumbers [cm-1]         3546.98     3547.00
 Intensities [km/mol]          0.00        0.00
 Intensities [relative]        0.00        0.00
           CX1              0.00032    -0.00033
           CY1             -0.00014     0.00015
           CZ1              0.00000     0.00000
           CX2             -0.00003    -0.00007
           CY2              0.00001    -0.00010
           CZ2              0.00000     0.00000
           CX3              0.00023     0.00031
           CY3             -0.00028    -0.00035
           CZ3              0.00000     0.00000
           CX4              0.00032     0.00033
           CY4             -0.00014    -0.00015
           CZ4              0.00000     0.00000
           CX5             -0.00003     0.00007
           CY5              0.00001     0.00010
           CZ5              0.00000     0.00000
           CX6              0.00023    -0.00031
           CY6             -0.00028     0.00035
           CZ6              0.00000     0.00000
           CX7             -0.00066     0.00066
           CY7             -0.00328     0.00328
           CZ7              0.00000     0.00000
           CX8             -0.00066    -0.00066
           CY8             -0.00328    -0.00328
           CZ8              0.00000     0.00000
           HX9             -0.00320     0.00395
           HY9              0.00429    -0.00517
           HZ9              0.00000     0.00000
           HX10            -0.00320    -0.00395
           HY10             0.00429     0.00517
           HZ10             0.00000     0.00000
           HX11             0.00006     0.00027
           HY11             0.00048     0.00065
           HZ11             0.00000     0.00000
           HX12             0.00006    -0.00027
           HY12             0.00048    -0.00065
           HZ12             0.00000     0.00000
           CX13            -0.04423     0.04423
           CY13            -0.05012     0.05012
           CZ13             0.00000     0.00000
           CX14            -0.04423    -0.04423
           CY14            -0.05012    -0.05012
           CZ14             0.00000     0.00000
           HX15             0.00672    -0.00670
           HY15             0.03761    -0.03756
           HZ15             0.00000     0.00000
           HX16             0.00672     0.00670
           HY16             0.03761     0.03756
           HZ16             0.00000     0.00000
           HX17             0.45084     0.45084
           HY17             0.13654     0.13654
           HZ17             0.00000     0.00000
           HX18             0.45084    -0.45084
           HY18             0.13654    -0.13654
           HZ18             0.00000     0.00000
           HX19             0.07440     0.07441
           HY19             0.46233     0.46233
           HZ19             0.00000     0.00000
           HX20             0.07440    -0.07441
           HY20             0.46233    -0.46233
           HZ20             0.00000     0.00000


 Normal Modes of low/zero frequencies
 
                                  1           2           3           4           5
 Wavenumbers [cm-1]            0.00        0.00        0.00        0.00        0.00
 Intensities [km/mol]          0.00        0.00        0.00        0.00        0.00
 Intensities [relative]        0.00        0.00        0.00        0.00        0.00
           CX1             -0.00650    -0.00062     0.01537     0.02645     0.07474
           CY1              0.07000     0.04143     0.04464    -0.02405     0.01265
           CZ1             -0.02016    -0.02994     0.02258     0.03641     0.01996
           CX2             -0.04096     0.01218     0.01691     0.02322     0.07538
           CY2              0.04038     0.05243     0.04597    -0.02682     0.01321
           CZ2             -0.01065     0.01281    -0.06280     0.03832     0.05504
           CX3             -0.03369     0.00948     0.01659     0.02390     0.07525
           CY3             -0.00381     0.06885     0.04795    -0.03097     0.01403
           CZ3             -0.00098     0.04028    -0.06403     0.06579     0.03245
           CX4              0.00854    -0.00620     0.01470     0.02786     0.07446
           CY4             -0.02047     0.07504     0.04869    -0.03253     0.01435
           CZ4             -0.00037     0.02621     0.02041     0.09270    -0.02649
           CX5              0.04300    -0.01900     0.01316     0.03109     0.07381
           CY5              0.00915     0.06404     0.04737    -0.02975     0.01379
           CZ5             -0.00988    -0.01653     0.10579     0.09079    -0.06157
           CX6              0.03573    -0.01630     0.01348     0.03041     0.07395
           CY6              0.05335     0.04762     0.04539    -0.02561     0.01296
           CZ6             -0.01956    -0.04401     0.10701     0.06332    -0.03898
           CX7             -0.01604     0.00293     0.01580     0.02556     0.07492
           CY7              0.11688     0.02402     0.04255    -0.01965     0.01177
           CZ7             -0.03028    -0.05796     0.01996     0.00651     0.04625
           CX8              0.01808    -0.00975     0.01427     0.02875     0.07428
           CY8             -0.06735     0.09245     0.05079    -0.03692     0.01523
           CZ8              0.00975     0.05423     0.02303     0.12260    -0.05277
           HX9              0.06307    -0.02646     0.01226     0.03297     0.07343
           HY9              0.07529     0.03947     0.04441    -0.02355     0.01255
           HZ9             -0.02674    -0.07680     0.17416     0.06266    -0.06728
           HX10            -0.06103     0.01964     0.01781     0.02134     0.07576
           HY10            -0.02576     0.07700     0.04893    -0.03302     0.01445
           HZ10             0.00621     0.07307    -0.13118     0.06645     0.06075
           HX11            -0.07388     0.02441     0.01839     0.02014     0.07600
           HY11             0.05256     0.04791     0.04543    -0.02568     0.01298
           HZ11            -0.01094     0.02436    -0.12892     0.01779     0.10073
           HX12             0.07592    -0.03123     0.01168     0.03418     0.07319
           HY12            -0.00303     0.06856     0.04791    -0.03089     0.01402
           HZ12            -0.00960    -0.02809     0.17191     0.11132    -0.10726
           CX13             0.01262    -0.00772     0.01452     0.02824     0.07438
           CY13             0.14886     0.01214     0.04112    -0.01666     0.01117
           CZ13            -0.03990    -0.09882     0.09377     0.00086     0.01928
           CX14            -0.01058     0.00090     0.01555     0.02607     0.07481
           CY14            -0.09933     0.10433     0.05222    -0.03992     0.01582
           CZ14             0.01936     0.09509    -0.05079     0.12825    -0.02581
           HX15            -0.05030     0.01565     0.01733     0.02235     0.07556
           HY15             0.12476     0.02109     0.04219    -0.01892     0.01162
           HZ15            -0.02947    -0.04246    -0.05069    -0.01221     0.09236
           HX16             0.05234    -0.02247     0.01274     0.03197     0.07363
           HY16            -0.07523     0.09538     0.05114    -0.03766     0.01537
           HZ16             0.00893     0.03874     0.09367     0.14132    -0.09889
           HX17            -0.00038    -0.00289     0.01510     0.02703     0.07462
           HY17            -0.13283     0.11677     0.05372    -0.04306     0.01645
           HZ17             0.02633     0.11302    -0.04163     0.15104    -0.04892
           HX18             0.00242    -0.00393     0.01497     0.02729     0.07457
           HY18             0.18236    -0.00030     0.03962    -0.01352     0.01054
           HZ18            -0.04687    -0.11674     0.08461    -0.02193     0.04239
           HX19            -0.04515     0.01374     0.01710     0.02283     0.07546
           HY19            -0.09375     0.10226     0.05197    -0.03940     0.01572
           HZ19             0.02073     0.11244    -0.12297     0.11067     0.02001
           HX20             0.04719    -0.02056     0.01297     0.03148     0.07373
           HY20             0.14328     0.01422     0.04137    -0.01718     0.01128
           HZ20            -0.04126    -0.11616     0.16595     0.01844    -0.02654
 
                                  6           7           8
 Wavenumbers [cm-1]            0.00       57.54       91.10
 Intensities [km/mol]          0.00        0.00        0.00
 Intensities [relative]        0.00        0.00        0.00
           CX1             -0.03438     0.00000     0.00000
           CY1              0.02641     0.00000     0.00000
           CZ1              0.08583    -0.04599    -0.05560
           CX2             -0.03720     0.00000     0.00000
           CY2              0.02399     0.00000     0.00000
           CZ2              0.12283    -0.06032     0.02552
           CX3             -0.03661     0.00000     0.00000
           CY3              0.02038     0.00000     0.00000
           CZ3              0.09198    -0.05665     0.08448
           CX4             -0.03315     0.00000     0.00000
           CY4              0.01902     0.00000     0.00000
           CZ4              0.02247    -0.04599     0.05560
           CX5             -0.03034     0.00000     0.00000
           CY5              0.02144     0.00000     0.00000
           CZ5             -0.01452    -0.06032    -0.02552
           CX6             -0.03093     0.00000     0.00000
           CY6              0.02505     0.00000     0.00000
           CZ6              0.01632    -0.05665    -0.08448
           CX7             -0.03516     0.00000     0.00000
           CY7              0.03024     0.00000     0.00000
           CZ7              0.12122    -0.00637    -0.08787
           CX8             -0.03237     0.00000     0.00000
           CY8              0.01519     0.00000     0.00000
           CZ8             -0.01291    -0.00637     0.08787
           HX9             -0.02870     0.00000     0.00000
           HY9              0.02684     0.00000     0.00000
           HZ9             -0.01375    -0.05989    -0.15798
           HX10            -0.03884     0.00000     0.00000
           HY10             0.01859     0.00000     0.00000
           HZ10             0.12205    -0.05989     0.15798
           HX11            -0.03989     0.00000     0.00000
           HY11             0.02499     0.00000     0.00000
           HZ11             0.17664    -0.06399     0.05147
           HX12            -0.02765     0.00000     0.00000
           HY12             0.02044     0.00000     0.00000
           HZ12            -0.06834    -0.06399    -0.05147
           CX13            -0.03282     0.00000     0.00000
           CY13             0.03286     0.00000     0.00000
           CZ13             0.09380     0.15111     0.09348
           CX14            -0.03472     0.00000     0.00000
           CY14             0.01257     0.00000     0.00000
           CZ14             0.01450     0.15111    -0.09348
           HX15            -0.03796     0.00000     0.00000
           HY15             0.03089     0.00000     0.00000
           HZ15             0.17504    -0.09768    -0.24644
           HX16            -0.02957     0.00000     0.00000
           HY16             0.01454     0.00000     0.00000
           HZ16            -0.06674    -0.09768     0.24644
           HX17            -0.03388     0.00000     0.00000
           HY17             0.00983     0.00000     0.00000
           HZ17            -0.01576     0.17879    -0.06596
           HX18            -0.03365     0.00000     0.00000
           HY18             0.03560     0.00000     0.00000
           HZ18             0.12406     0.17879     0.06596
           HX19            -0.03754     0.00000     0.00000
           HY19             0.01303     0.00000     0.00000
           HZ19             0.06772     0.25981    -0.27854
           HX20            -0.03000     0.00000     0.00000
           HY20             0.03240     0.00000     0.00000
           HZ20             0.04058     0.25981     0.27854


 Zero point energy:  0.17705472 [H]    38859.02 [1/CM]      464.86 [KJ/MOL]

 Recomputing wavefunction at initial geometry


 **********************************************************************************************************************************
 DATASETS  * FILE   NREC   LENGTH (MB)   RECORD NAMES
              1      22        9.46       500      700      610      701      703      900      950      970     1000     1100   
                                          VAR     GEOM    BASINP    GEOM     GEOM    SYMINP    ZMAT    AOBASIS   BASIS      S 
                                         1400     1410     1200     1210     1080     1600      129      960     1650     1300   
                                           T        V       H0       H01     AOSYM     SMH      P2S    ABASIS   MOLCAS    ERIS   
                                         1700     1800   
                                         OPER     GRID   
 
              2      15        3.38       500      610      700     1000     1800     1801     2100      701     1001     2101   
                                          VAR    BASINP    GEOM     BASIS    GRID     GRID      RKS     GEOM     BASIS     RKS  
                                          702      703     5300     5400     5450   
                                         GEOM     GEOM     HESS     FREQ     NMOD   
 
 PROGRAMS   *        TOTAL      FREQ        KS        KS        KS        KS        KS        KS        KS        KS        KS
 CPU TIMES  *      4288.28     25.31     36.14     45.86     45.88     40.96     40.97     36.13     41.05     41.03     45.90
 REAL TIME  *      4448.58 SEC
 DISK USED  *        25.44 MB      
 **********************************************************************************************************************************

 Dump information in style MOLDEN to dvb_ir.molden                                                                   

 Molecular orbitals read from record     2100.2  Type=RKS/CANONICAL (state 1.1)
 Occupation numbers read from record     2100.2  Type=RKS/RHF (state 1.1)
 Orbital energies read from record       2100.2  Type=RKS/CANONICAL (state 1.1)
 Redundancy group numbers read from rec  2100.2  Type=RKS/RHF (state 1.1)
 
 DUMP ORBITAL  1.1 AS ORBITAL    1  occ=    2.0000  eig=  -10.0162  GROUP=   2
 DUMP ORBITAL  2.1 AS ORBITAL    2  occ=    2.0000  eig=  -10.0162  GROUP=   2
 DUMP ORBITAL  3.1 AS ORBITAL    3  occ=    2.0000  eig=  -10.0041  GROUP=   2
 DUMP ORBITAL  4.1 AS ORBITAL    4  occ=    2.0000  eig=  -10.0041  GROUP=   2
 DUMP ORBITAL  5.1 AS ORBITAL    5  occ=    2.0000  eig=  -10.0028  GROUP=   2
 DUMP ORBITAL  6.1 AS ORBITAL    6  occ=    2.0000  eig=  -10.0028  GROUP=   2
 DUMP ORBITAL  7.1 AS ORBITAL    7  occ=    2.0000  eig=  -10.0021  GROUP=   2
 DUMP ORBITAL  8.1 AS ORBITAL    8  occ=    2.0000  eig=  -10.0019  GROUP=   2
 DUMP ORBITAL  9.1 AS ORBITAL    9  occ=    2.0000  eig=   -9.9883  GROUP=   2
 DUMP ORBITAL 10.1 AS ORBITAL   10  occ=    2.0000  eig=   -9.9883  GROUP=   2
 DUMP ORBITAL 11.1 AS ORBITAL   11  occ=    2.0000  eig=   -0.8057  GROUP=   2
 DUMP ORBITAL 12.1 AS ORBITAL   12  occ=    2.0000  eig=   -0.7502  GROUP=   2
 DUMP ORBITAL 13.1 AS ORBITAL   13  occ=    2.0000  eig=   -0.7142  GROUP=   2
 DUMP ORBITAL 14.1 AS ORBITAL   14  occ=    2.0000  eig=   -0.6961  GROUP=   2
 DUMP ORBITAL 15.1 AS ORBITAL   15  occ=    2.0000  eig=   -0.6638  GROUP=   2
 DUMP ORBITAL 16.1 AS ORBITAL   16  occ=    2.0000  eig=   -0.5850  GROUP=   2
 DUMP ORBITAL 17.1 AS ORBITAL   17  occ=    2.0000  eig=   -0.5553  GROUP=   2
 DUMP ORBITAL 18.1 AS ORBITAL   18  occ=    2.0000  eig=   -0.5280  GROUP=   2
 DUMP ORBITAL 19.1 AS ORBITAL   19  occ=    2.0000  eig=   -0.5064  GROUP=   2
 DUMP ORBITAL 20.1 AS ORBITAL   20  occ=    2.0000  eig=   -0.4537  GROUP=   2
 DUMP ORBITAL 21.1 AS ORBITAL   21  occ=    2.0000  eig=   -0.4356  GROUP=   2
 DUMP ORBITAL 22.1 AS ORBITAL   22  occ=    2.0000  eig=   -0.4070  GROUP=   2
 DUMP ORBITAL 23.1 AS ORBITAL   23  occ=    2.0000  eig=   -0.3942  GROUP=   2
 DUMP ORBITAL 24.1 AS ORBITAL   24  occ=    2.0000  eig=   -0.3923  GROUP=   2
 DUMP ORBITAL 25.1 AS ORBITAL   25  occ=    2.0000  eig=   -0.3703  GROUP=   2
 DUMP ORBITAL 26.1 AS ORBITAL   26  occ=    2.0000  eig=   -0.3474  GROUP=   2
 DUMP ORBITAL 27.1 AS ORBITAL   27  occ=    2.0000  eig=   -0.3436  GROUP=   2
 DUMP ORBITAL 28.1 AS ORBITAL   28  occ=    2.0000  eig=   -0.3208  GROUP=   2
 DUMP ORBITAL 29.1 AS ORBITAL   29  occ=    2.0000  eig=   -0.3076  GROUP=   2
 DUMP ORBITAL 30.1 AS ORBITAL   30  occ=    2.0000  eig=   -0.2891  GROUP=   2
 DUMP ORBITAL 31.1 AS ORBITAL   31  occ=    2.0000  eig=   -0.2838  GROUP=   2
 DUMP ORBITAL 32.1 AS ORBITAL   32  occ=    2.0000  eig=   -0.2599  GROUP=   2
 DUMP ORBITAL 33.1 AS ORBITAL   33  occ=    2.0000  eig=   -0.2088  GROUP=   2
 DUMP ORBITAL 34.1 AS ORBITAL   34  occ=    2.0000  eig=   -0.1914  GROUP=   2
 DUMP ORBITAL 35.1 AS ORBITAL   35  occ=    2.0000  eig=   -0.1494  GROUP=   2

 Total charge:      70.000000
 Frequency information read from record  5400.2

 **********************************************************************************************************************************

        KS-SCF          KS-SCF          KS-SCF          KS-SCF          KS-SCF          KS-SCF          KS-SCF          KS-SCF  
   -382.05077395   -382.05077269   -382.05075310   -382.05075334   -382.05076967   -382.05077078   -382.05077271   -382.05076905
 **********************************************************************************************************************************
 Variable memory released
