[Molden Format]
[Molpro variables]
NUMVAR=                    673.0000000000000000
PATCHLEVEL=                    673.0000000000000000
EV=                      0.0367493088676916
KJOULE=                      0.0003808798324129
KJOULE/MOL=                      0.0003808798324129
CM=                      0.0000045563352673
CM-1=                      0.0000045563352673
KCAL=                      0.0015936011178156
KCAL/MOL=                      0.0015936011178156
KELVIN=                      0.0000031668288611
HERTZ=                      0.0000000000000002
HZ=                      0.0000000000000002
TOA=                      0.5291772490000000
TOANG=                      0.5291772490000000
TORAD=                      0.0174532925199433
TOCM=                 219474.6306700000131968
TODEBYE=                      2.5415800000000002
TOEV=                     27.2113961000000018
TOHERTZ=       6579683899900000.0000000000000000
TOHZ=       6579683899900000.0000000000000000
TOK=                 315773.2999999999883585
TOKCAL=                    627.5095999999999776
TOKELVIN=                 315773.2999999999883585
TOKJ=                   2625.5000000000000000
TOKJOULE=                   2625.5000000000000000
ANG=                      1.8897259885789233
ANGSTROM=                      1.8897259885789233
IGNORE_UNDEF=                      2.0000000000000000
STRICTCHECK=                      0.0000000000000000
SEW_ONEEL=                      0.0000000000000000
CPPDONE=FALSE
DKROLL_DONE=                      0.0000000000000000
FOCKDONE=TRUE
GRADONE=FALSE
HESSDONE=FALSE
INTDONE=TRUE
SCFDONE=TRUE
MODUL_LCCSD=TRUE
MODUL_COSMO=TRUE
MODUL_VSCF=TRUE
MODUL_CFIT=TRUE
MODUL_MRCC=FALSE
MODUL_CIDFT=TRUE
MODUL_CC2=TRUE
MRCC_EXEC=
FITC_AO_SAVED=FALSE
FITC_MO_SAVED=FALSE
LSTYP=SEWARD
INTYP=INTS
GEOMTYP=ZMAT
GRADTYP=ALASKA
DIRECT=FALSE
DKROLL=FALSE
SYNCM=                      0.0000000000000000
DFTNAME=B3LYP
DFTFUNC=B88
BASIS=STO-3G
BASISSETS=
ZSIGNX=
ZSIGNY=
ZSIGNZ=
CHARGE=
SCFCHARGE=
MCCHARGE=
CICHARGE=
CCCHARGE=
NELEC=                     70.0000000000000000
!NELEC=                     70.0000000000000000
SCFNELEC=                     70.0000000000000000
MCNELEC=                     70.0000000000000000
CINELEC=                     70.0000000000000000
CCNELEC=                     70.0000000000000000
SPIN=                      0.0000000000000000
!SPIN=                      0.0000000000000000
SCFSPIN=                      0.0000000000000000
MCSPIN=                      0.0000000000000000
CISPIN=                      0.0000000000000000
CCSPIN=                      0.0000000000000000
STATE=                      0.0000000000000000
SCFSTATE=                      0.0000000000000000
MCSTATE=                      0.0000000000000000
CISTATE=                      0.0000000000000000
SYMMETRY=                      0.0000000000000000
!SYMMETRY=                      0.0000000000000000
SCFSYMMETRY=                      0.0000000000000000
MCSYMMETRY=                      0.0000000000000000
CISYMMETRY=                      0.0000000000000000
CCSYMMETRY=                      0.0000000000000000
SCFSYMM=                      0.0000000000000000
MCSYMM=                      0.0000000000000000
CISYMM=                      0.0000000000000000
CCSYMM=                      0.0000000000000000
SCFSYM=                      0.0000000000000000
MCSYM=                      0.0000000000000000
CISYM=                      0.0000000000000000
CCSYM=                      0.0000000000000000
ZSYMEL=                      0.0000000000000000
WEIGHT=                      0.0000000000000000
MCWEIGHT=                      0.0000000000000000
LQUANT=                      0.0000000000000000
MCLQUANT=                      0.0000000000000000
OPTCONV=                      0.0029348427449902
QSDSTEP=                      0.0000000000000000
QSDIRC=                      0.0000000000000000
PROGRAM=OPTG
CPUSTEP=                      0.0099999999999909
SYSSTEP=                      0.0000000000000000
WALLSTEP=                      0.0000000000000000
!PERT=                      0.0000000000000000
!DFMP2=                      0.0000000000000000
!DFSCF=                      0.0000000000000000
!DFHFENERG=                      0.0000000000000000
!SCSGRD=                      0.0000000000000000
ATCHARGE=                      0.0000000000000000
BASINP=                    610.0000000000000000
CARTESIAN=                    610.0000000000000000
CFIT=                    610.0000000000000000
CFIT_FRED=                    610.0000000000000000
CFIT_FRED_THR=                    610.0000000000000000
CHII2=                    610.0000000000000000
CHIRS=                    610.0000000000000000
COEFF=                    610.0000000000000000
CPU2IDX_CFIT=                    610.0000000000000000
CPU3IDX_CFIT=                    610.0000000000000000
CPUASMBL_CFIT=                    610.0000000000000000
CPUBLAS1=                    610.0000000000000000
CPUBLAS2=                    610.0000000000000000
CPUBLAS3=                    610.0000000000000000
CPUINT_DTRAF=                    610.0000000000000000
CPUSOLVE_CFIT=                    610.0000000000000000
CPUTOT=                    558.0099999999999909
CPUTR1_CFIT=                    558.0099999999999909
CPUTR2_CFIT=                    558.0099999999999909
CPUINV_CFIT=                    558.0099999999999909
CPUFIT_CFIT=                    558.0099999999999909
CPUTRANS_CFIT=                    558.0099999999999909
CPUSCREEN_CFIT=                    558.0099999999999909
CPUTRANS_DTRAF=                    558.0099999999999909
CPUTRA_DTRAF=                    558.0099999999999909
DALTON=                    558.0099999999999909
DARW=                    558.0099999999999909
DECAY=                    558.0099999999999909
DELE_CFIT=                    558.0099999999999909
DELG_CFIT=                    558.0099999999999909
DELTA=                    558.0099999999999909
DFTEXFAC=                      0.2000000000000000
DFTFAC=                      0.7200000000000000
DFTFUN=                    -46.5257705516535793
DFTFUNS=                    -55.3122186544805672
DMEX=                    -55.3122186544805672
DMEY=                    -55.3122186544805672
DMEZ=                    -55.3122186544805672
DMNX=                    -55.3122186544805672
DMNY=                    -55.3122186544805672
DMNZ=                    -55.3122186544805672
DMSCF=                    -55.3122186544805672
DMSCF_Efield=                    -55.3122186544805672
DMSCF_I=                    -55.3122186544805672
DMSCF_J=                    -55.3122186544805672
DMSCF_K=                    -55.3122186544805672
DMSCF_N1=                    -55.3122186544805672
DMSCF_N2=                    -55.3122186544805672
DMSCF_NUC=                    -55.3122186544805672
DMSCF_T=                    -55.3122186544805672
DMSCF_V=                    -55.3122186544805672
DMX=                      0.0000001112595633
DMY=                     -0.0000001791917321
DMZ=                     -0.0000000000000014
DMZCOR=                     -0.0000000000000014
DM_RHO1=                     -0.0000000000000014
DM_RVAL=                     -0.0000000000000014
DUMMYATOMS=                     -0.0000000000000014
FREQUENCIES=                     -0.0000000000000014
EDISP=                     -0.0000000000000014
EEDISP=                     -0.0000000000000014
EINTRA=                     -0.0000000000000014
EIONIC=                     -0.0000000000000014
EMP2=                     -0.0000000000000014
EMP2_SING=                     -0.0000000000000014
EMP2_TRIP=                     -0.0000000000000014
EMP2_SCS=                     -0.0000000000000014
ECSING=                     -0.0000000000000014
ECTRIP=                     -0.0000000000000014
EMP2R12_2AD=                     -0.0000000000000014
EMP2R12_2A=                     -0.0000000000000014
EMP2R12_2AP=                     -0.0000000000000014
EMP2R12_2SAD=                     -0.0000000000000014
EMP2R12_2SA=                     -0.0000000000000014
EMP2R12_2SAP=                     -0.0000000000000014
EMP2R12_2B=                     -0.0000000000000014
EMP2_R12=                     -0.0000000000000014
EMP2_R12_A=                     -0.0000000000000014
EMP2_R12_AP=                     -0.0000000000000014
EMP2_R12_AD=                     -0.0000000000000014
EMP2_R12_2SA=                     -0.0000000000000014
EMP2_R12_2SAP=                     -0.0000000000000014
EMP2_R12_2SAD=                     -0.0000000000000014
EMP2_R12_2A=                     -0.0000000000000014
EMP2_R12_2AP=                     -0.0000000000000014
EMP2_R12_2B=                     -0.0000000000000014
EMP2_R12_DIAG=                     -0.0000000000000014
EMP2_R12_STRONG=                     -0.0000000000000014
EMP2_R12_CLOSE=                     -0.0000000000000014
EMP2_R12_WEAK=                     -0.0000000000000014
EMP2_R12_DIST=                     -0.0000000000000014
EMP2_R12_SING=                     -0.0000000000000014
EMP2_R12_TRIP=                     -0.0000000000000014
EMP2_R12_SCS=                     -0.0000000000000014
EMP2R=                     -0.0000000000000014
EMP3=                     -0.0000000000000014
EMP3R=                     -0.0000000000000014
EMP4=                     -0.0000000000000014
ENERGC=                     -0.0000000000000014
ENERGD=                     -0.0000000000000014
ENERGP=                     -0.0000000000000014
ENERGR=                     -0.0000000000000014
ENERGRR=                     -0.0000000000000014
ENERGS=                     -0.0000000000000014
ENERGT=                     -0.0000000000000014
ENERGU=                     -0.0000000000000014
ENERGW=                     -0.0000000000000014
ENERGY=                   -382.0507770727114121
ENERGY_MP=                   -382.0507770727114121
ENUC=                    445.8104227044675554
EPDIST=                    445.8104227044675554
EPDIST_R12=                    445.8104227044675554
EPSUM=                    445.8104227044675554
EPSUM_R12=                    445.8104227044675554
EPS1=                    -10.0113895550979439
EPS2=                    -10.0113895550979439
EPS3=                    -10.0113895550979439
EPS4=                    -10.0113895550979439
EPS5=                    -10.0113895550979439
EPS6=                    -10.0113895550979439
EPS7=                    -10.0113895550979439
EPS8=                    -10.0113895550979439
EREL=                    -10.0113895550979439
FLOPBLAS1=                    -10.0113895550979439
FLOPBLAS2=                    -10.0113895550979439
FLOPBLAS3=                    -10.0113895550979439
FLOPDGM=                    -10.0113895550979439
FLOPDGV=                    -10.0113895550979439
FLOPMXM=                    -10.0113895550979439
FLOPMXV=                    -10.0113895550979439
FREQSTEP=                    -10.0113895550979439
!RS2GRSTATE=                    -10.0113895550979439
!RS2GRSYM=                    -10.0113895550979439
GRADENERG=                   -382.0507768252731466
GRADEXFAC=                      0.2000000000000000
GRADMETHOD=                      1.0000000000000000
GRADRECORD=                      1.0000000000000000
GRADX=                      1.0000000000000000
GRADY=                      1.0000000000000000
GRADZ=                      1.0000000000000000
GRADVAR=                      1.0000000000000000
GRID=                   1800.2000000000000455
GRID_FREEZE=                   1800.2000000000000455
!GRID_FREEZE=                     -1.0000000000000000
GRID_WEIGHT_CUT=                     -1.0000000000000000
GRID_BLOCKSIZE=                     -1.0000000000000000
GRID_SPARSITY=                      0.1402173913043478
GRID_RMAX=                      4.8651362554330531
GTOTAL=                      4.8651362554330531
HDIA=                      4.8651362554330531
HDIACI=                      4.8651362554330531
HEAT=                      4.8651362554330531
HTOTAL=                      4.8651362554330531
INCR_CORR=                      4.8651362554330531
INCR_COUNT=                      4.8651362554330531
INCR_READY=                      4.8651362554330531
ISCHI=                      4.8651362554330531
ITERATIONS=                      5.0000000000000000
KFIT=                      5.0000000000000000
LASTNELEC=                     70.0000000000000000
LASTSPIN=                      0.0000000000000000
LASTSYM=                      1.0000000000000000
LL=                      1.0000000000000000
MASSV=                      1.0000000000000000
MIN_ITER=                      1.0000000000000000
MIXANG=                      1.0000000000000000
MIXANGCI=                      1.0000000000000000
MPP_PROG=                      0.0000000000000000
MSENERGY=                      0.0000000000000000
NACME=                      0.0000000000000000
NBAS_CFIT=                      0.0000000000000000
NEWREC=                      0.0000000000000000
NGRID=                 138244.0000000000000000
NPROC_MPP=                      1.0000000000000000
NPROC_SMP=                      1.0000000000000000
NUMSTEP=                      0.0000000000000000
OPNUC=                      0.0000000000000000
OPTCONVMX=                      0.0016992633567501
OPTCONVRMS=                      0.0000489140457498
OPTGRAD=                      0.0003451207200504
OPTGRADMX=                      0.0001212286760552
OPTGRADRMS=                      0.0000057520120008
OPTRMSMAX=                      0.0000057520120008
OPTSTEP=                      6.0000000000000000
ORBITAL=                   2100.1999999999998181
PAOINT_CFIT=                   2100.1999999999998181
PENALTY=                   2100.1999999999998181
PH1INT_CFIT=                   2100.1999999999998181
PH1VEC_CFIT=                   2100.1999999999998181
PH2INT_CFIT=                   2100.1999999999998181
PHASE=                   2100.1999999999998181
PI=                      3.1415926535897931
PMOINT_CFIT=                      3.1415926535897931
PMOVEC_CFIT=                      3.1415926535897931
POISSON_ECORR=                      3.1415926535897931
POISSON_ERROR=                      3.1415926535897931
POLXX=                      3.1415926535897931
POLXY=                      3.1415926535897931
POLXZ=                      3.1415926535897931
POLYY=                      3.1415926535897931
POLYZ=                      3.1415926535897931
POLZZ=                      3.1415926535897931
POLYX=                      3.1415926535897931
POLZX=                      3.1415926535897931
POLZY=                      3.1415926535897931
POVINT_CFIT=                      3.1415926535897931
ROOT=                      3.1415926535897931
RPDIST=                      3.1415926535897931
RPMIN=                      3.1415926535897931
RPMAX=                      3.1415926535897931
EPCON=                      3.1415926535897931
EPDIAG=                      3.1415926535897931
!MCACT=                      3.1415926535897931
!MCCLOSED=                      3.1415926535897931
!MCFREEZE=                      3.1415926535897931
!MCMS2=                      3.1415926535897931
!MCNEL=                      3.1415926535897931
!MCNSTSYM=                      3.1415926535897931
!MCSTATE=                      3.1415926535897931
!MCSYM=                      3.1415926535897931
!MCWEIGHT=                      3.1415926535897931
SEIG_MIN=                      0.1815060123470578
SEWPROP=                      1.0000000000000000
SMAT=                      1.0000000000000000
SMATCI=                      1.0000000000000000
STATUS=                      1.0000000000000000
SYSBLAS1=                      1.0000000000000000
SYSBLAS2=                      1.0000000000000000
SYSBLAS3=                      1.0000000000000000
SYSTEM_RC=                      1.0000000000000000
SYSTOT=                     20.6499999999999986
T1DIAG=                     20.6499999999999986
D1DIAG=                     20.6499999999999986
TASK=                     20.6499999999999986
TROV=                     20.6499999999999986
HMAT=                     20.6499999999999986
UMAT=                     20.6499999999999986
UMATCI=                     20.6499999999999986
VERSION=                2006002.0000000000000000
WALLBLAS1=                2006002.0000000000000000
WALLBLAS2=                2006002.0000000000000000
WALLBLAS3=                2006002.0000000000000000
WALLTOT=                    599.7999999999999545
ZPE=                    599.7999999999999545
!DFBASIS_COUL=                    599.7999999999999545
!DFBASIS_EXCH=                    599.7999999999999545
!DFBASIS_MP2=                    599.7999999999999545
!DFBASIS_CCSD=                    599.7999999999999545
!RIBASIS_MP2=                    599.7999999999999545
MODULE_ALMLOF=                    599.7999999999999545
MODULE_BENCH=                    599.7999999999999545
MODULE_CFIT=                    599.7999999999999545
MODULE_DEVELOP=                    599.7999999999999545
MODULE_DIRECT=                    599.7999999999999545
MODULE_DMSCF=                    599.7999999999999545
MODULE_DOC=                    599.7999999999999545
MODULE_DOCDEV=                    599.7999999999999545
MODULE_LCCSD=                    599.7999999999999545
MODULE_LOCAL=                    599.7999999999999545
MODULE_LX=                    599.7999999999999545
MODULE_MPP=                    599.7999999999999545
MODULE_COSMO=                    599.7999999999999545
MODULE_DFIT=                    599.7999999999999545
MODULE_EXPLICIT=                    599.7999999999999545
MODULE_VSCF=                    599.7999999999999545
MODULE_MRCC=                    599.7999999999999545
MODULE_CIDFT=                    599.7999999999999545
MODULE_CC2=                    599.7999999999999545
MODULE_SLATER=                    599.7999999999999545
MODULE_GCC=                    599.7999999999999545
DATE= 24-Sep-06
LASTORB=RKS
MACHINE=Linux-2.6.18-ck1/agmar(i686) 32 bit version (ifort9.1/mkl_ia32)
METHODC=
METHODT=
OUTPUT=/home/bounouar/src/cclib/data/Molpro/basicMolpro2006/dvb_gopt.out
PGROUP=C1
SEMI=
TIME=23:01:15
VDIAG=
UDIAG=
!AOINTADDSC=
TRANSFORM_FORCE=
SOLVE_ITER=
VSCF_FREQ=
VCI_FREQ=
!SURFREC=                      0.0000000000000000
!VSCFREC=                      0.0000000000000000
!VCIREC=                      0.0000000000000000
!VMP2REC=                      0.0000000000000000
!SCFORB=                  21002.0000000000000000
!CIOCC=                  21002.0000000000000000
!CICORE=                  21002.0000000000000000
!CICLOS=                  21002.0000000000000000
!UNO_OCC=                  21002.0000000000000000
!UNO_CLOSED=                  21002.0000000000000000
!CINSTSYM=                  21002.0000000000000000
!CIISTSYM=                  21002.0000000000000000
!CIISTMS2=                  21002.0000000000000000
!CIISTNEL=                  21002.0000000000000000
!CIMS2=                  21002.0000000000000000
!NEWMOL=                      0.0000000000000000
!NEWSYM=                      0.0000000000000000
!NEWORIENT=                      0.0000000000000000
SLFILES=slscratch
NGSSTO=                      9.0000000000000000
SIN=SIN
COS=COS
TAN=TAN
ACOS=ACOS
ASIN=ASIN
ATAN=ATAN
COSH=COSH
SINH=SINH
TANH=TANH
ABS=ABS
MOD=MOD
ERF=ERF
REFC=REFC
ERFC=ERFC
HYPOT=HYPOT
J0=J0
J1=J1
JN=JN
GAMMA=GAMMA
LGAMMA=LGAMMA
Y0=Y0
Y1=Y1
YN=YN
EXP=EXP
LOG=LOG
LOG10=LOG10
SQRT=SQRT
INT=INT
NINT=NINT
MAX=MAX
MIN=MIN
COSMO=                      0.0000000000000000
COSMOIT=                      0.0000000000000000
COSMOES=                      0.0000000000000000
COSMOEDS=                      0.0000000000000000
COSMOEC=                      0.0000000000000000
COSMOEDCORR=                      0.0000000000000000
FEPSI=                      1.0000000000000000
SL_IsMM=                      0.0000000000000000
SL_NSYM=                      1.0000000000000000
SL_System_BitSwi=                     32.0000000000000000
SL_Unique_atoms=                     20.0000000000000000
SL_Last_energy=                   -382.0507768252731466
SL_GRAD=                      0.0000000000000000
SL_MAXUPD_Hessia=                      5.0000000000000000
SL_N_PRINT_CODES=                      5.0000000000000000
SL_PRINT_CODES=                      0.0000000000000000
SL_BasType=                      0.0000000000000000
SL_Energy_Pred=                   -382.0507770344728442
SL_New_Coords=                      0.0000000000000000
SL_Total_Nuclear=                      0.0000000000000000
SL_Highest_Mltpl=                      1.0000000000000000
SCFOCC=                      1.0000000000000000
SCFCLOSED=                      1.0000000000000000
SCFCORE=                      1.0000000000000000
MCOCC=                      1.0000000000000000
MCCLOSED=                      1.0000000000000000
MCFROZEN=                      1.0000000000000000
MCCORE=                      1.0000000000000000
CIOCC=                      1.0000000000000000
CICLOSED=                      1.0000000000000000
CICORE=                      1.0000000000000000
CCOCC=                      1.0000000000000000
CCCLOSED=                      1.0000000000000000
CCCORE=                      1.0000000000000000
SRXC=                      1.0000000000000000
SRC=                      1.0000000000000000
SRX=                      1.0000000000000000
SRH=                      1.0000000000000000
E_EXCHANGE=                      1.0000000000000000
!LATTICE=                     -1.0000000000000000
!NEWLATTICE=                      0.0000000000000000
!LATGRAD_VAR=FALSE
!SEW_LATTICE=                      1.0000000000000000
LATGRADX=                      1.0000000000000000
LATGRADY=                      1.0000000000000000
LATGRADZ=                      1.0000000000000000
!SCALTABINIT=                      1.0000000000000000
!LOCAL=                      0.0000000000000000
!SAVEOCC=                      0.0000000000000000
!SAVEDOM=                     -1.0000000000000000
!RESTDOM=                     -1.0000000000000000
!SAVEDOM_HF=                     -1.0000000000000000
!RESTDOM_HF=                     -1.0000000000000000
!HESSREC=                      0.0000000000000000
!FREQREC=                      0.0000000000000000
!NMODREC=                      0.0000000000000000
!GTASKS=                      0.0000000000000000
!HTASKS=                      0.0000000000000000
!THRCHG=                      0.1000000000000000
!DEBUG=                     -1.0000000000000000
!CFIT_CPHF=                      0.0000000000000000
!RDOMAUX_CPHF=                      5.0000000000000000
!THRAO_CPHF=                      0.0000000000100000
!THRMO_CPHF=                      0.0000000000100000
!THROV_CPHF=                      0.0000000000010000
!THRSW_CPHF=                      0.0000000001000000
!THRPROD_CPHF=                      0.0000000000100000
!THRAOPR_CPHF=                      0.0000000000010000
!CFIT_SCFGRD=                      0.0000000000000000
!RDOMAUX_SCFGRD=                      7.0000000000000000
!THRAO_SCFGRD=                      0.0000000000100000
!THRMO_SCFGRD=                      0.0000000000100000
!THROV_SCFGRD=                      0.0000000000010000
!THRSW_SCFGRD=                      0.0000000001000000
!THRPROD_SCFGRD=                      0.0000000000100000
!THRAOPR_SCFGRD=                      0.0000000000010000
!LOCFIT_SCF=                      0.0000000000000000
!LOCFIT_MP2=                     -1.0000000000000000
RIDOM=                      0.0000000000000000
FCI_METHOD=                      0.0000000000000000
!CC2_METHOD=                      0.0000000000000000
BASIS2006=FALSE
CXX2=                      1.4299999999999999
CXX3=                      1.4030000000000000
CXX4=                      1.4090000000000000
CC8=                      1.4500000000000000
CCC8=                    120.0000000000000000
HC10=                      1.0970000000000000
HCC10=                    120.0000000000000000
HC12=                      1.0987199999999999
HCC12=                    120.0000000000000000
CC14=                      1.3423000000000000
CCC14=                    120.0000000000000000
HC16=                      1.1000000000000001
HCC16=                    120.0000000000000000
HC18=                      1.0966000000000000
HCC18=                    109.4710000000000036
HC20=                      1.0959000000000001
HCC20=                    126.0000000000000000
GX1=                      2.6765549737934604
GY1=                      0.4450535012439182
GZ1=                      0.0000000000000000
GX2=                      0.9240788608503351
GY2=                      2.4838953660792016
GZ2=                      0.0000000000000000
GX3=                     -1.6908892531663984
GY3=                      2.0536162111740976
GZ3=                      0.0000000000000000
GX4=                     -2.6765550334061063
GY4=                     -0.4450538470837748
GZ4=                      0.0000000000000000
GX5=                     -0.9240789929679095
GY5=                     -2.4838955430031593
GZ5=                      0.0000000000000000
GX6=                      1.6908894545452358
GY6=                     -2.0536163344083760
GZ6=                      0.0000000000000000
GX7=                      5.4502279563843370
GY7=                      1.0092277453973026
GZ7=                      0.0000000000000000
GX8=                     -5.4502280418402371
GY8=                     -1.0092275417068335
GZ8=                      0.0000000000000000
GX9=                      2.9892383453137206
GY9=                     -3.6713226085462778
GZ9=                      0.0000000000000000
GX10=                     -2.9892383913349261
GY10=                      3.6713223392802088
GZ10=                      0.0000000000000000
GX11=                      1.6443354256193674
GY11=                      4.4314014234397625
GZ11=                      0.0000000000000000
GX12=                     -1.6443356426702236
GY12=                     -4.4314015433262544
GZ12=                      0.0000000000000000
GX13=                      7.3423950807902498
GY13=                     -0.6864945798331867
GZ13=                      0.0000000000000000
GX14=                     -7.3423950145504069
GY14=                      0.6864949781218104
GZ14=                      0.0000000000000000
GX15=                      5.9165122310375358
GY15=                      3.0362188918250825
GZ15=                      0.0000000000000000
GX16=                     -5.9165125083944954
GY16=                     -3.0362186148776886
GZ16=                      0.0000000000000000
GX17=                     -9.3244132007008371
GY17=                      0.0827214204258876
GZ17=                      0.0000000000000000
GX18=                      9.3244133164451934
GY18=                     -0.0827210991848657
GZ18=                      0.0000000000000000
GX19=                     -7.0120251541168557
GY19=                      2.7316255586157654
GZ19=                      0.0000000000000000
GX20=                      7.0120256928108233
GY20=                     -2.7316252431043124
GZ20=                      0.0000000000000000
GX21=                      6.6048663889853199
GY21=                     -2.8094379803266234
GZ21=                     -0.0000000000000001
CX1=                      2.6751746298590202
CY1=                      0.4532767334930365
CZ1=                      0.0000000000000000
CX2=                      0.9164411992193124
CY2=                      2.4867234124574851
CZ2=                      0.0000000000000000
CX3=                     -1.6971922700725346
CY3=                      2.0484101949205891
CZ3=                      0.0000000000000000
CX4=                     -2.6751746987050447
CY4=                     -0.4532771275991556
CZ4=                      0.0000000000000000
CX5=                     -0.9164413410890208
CY5=                     -2.4867236378713189
CZ5=                      0.0000000000000000
CX6=                      1.6971924615326688
CY6=                     -2.0484103656201245
CZ6=                      0.0000000000000000
CX7=                      5.4471007434791678
CY7=                      1.0259721261332360
CZ7=                      0.0000000000000000
CX8=                     -5.4471008398570948
CY8=                     -1.0259719707910433
CZ8=                      0.0000000000000000
HX9=                      3.0005066168309584
HY9=                     -3.6621190271027331
HZ9=                      0.0000000000000000
HX10=                     -3.0005066723209266
HY10=                      3.6621187096118084
HZ10=                      0.0000000000000000
HX11=                      1.6307094553100612
HY11=                      4.4364337039854451
HZ11=                      0.0000000000000000
HX12=                     -1.6307096822879328
HY12=                     -4.4364338726230921
HZ12=                      0.0000000000000000
CX13=                      7.3444700805882039
CY13=                     -0.6639273470799066
CZ13=                      0.0000000000000000
CX14=                     -7.3444700258691258
CY14=                      0.6639276974855129
CZ14=                      0.0000000000000000
HX15=                      5.9071536419988977
HY15=                      3.0543866456654398
HZ15=                      0.0000000000000000
HX16=                     -5.9071539305021048
HY16=                     -3.0543864176564020
HZ16=                      0.0000000000000000
HX17=                     -9.3246233880684528
HY17=                      0.0540660235179343
HZ17=                      0.0000000000000000
HX18=                      9.3246234925285876
HY18=                     -0.0540657500074329
HZ18=                      0.0000000000000000
HX19=                     -7.0203866443216869
HY19=                      2.7100638849762682
HZ19=                      0.0000000000000000
HX20=                      7.0203871717470419
HY20=                     -2.7100636158955362
HZ20=                      0.0000000000000000
[Atoms] Angs