[Molden Format]
[Molpro variables]
NUMVAR=                    653.0000000000000000
PATCHLEVEL=                    653.0000000000000000
EV=                      0.0367493088676916
KJOULE=                      0.0003808798324129
KJOULE/MOL=                      0.0003808798324129
CM=                      0.0000045563352673
CM-1=                      0.0000045563352673
KCAL=                      0.0015936011178156
KCAL/MOL=                      0.0015936011178156
KELVIN=                      0.0000031668288611
HERTZ=                      0.0000000000000002
HZ=                      0.0000000000000002
TOA=                      0.5291772490000000
TOANG=                      0.5291772490000000
TORAD=                      0.0174532925199433
TOCM=                 219474.6306700000131968
TODEBYE=                      2.5415800000000002
TOEV=                     27.2113961000000018
TOHERTZ=       6579683899900000.0000000000000000
TOHZ=       6579683899900000.0000000000000000
TOK=                 315773.2999999999883585
TOKCAL=                    627.5095999999999776
TOKELVIN=                 315773.2999999999883585
TOKJ=                   2625.5000000000000000
TOKJOULE=                   2625.5000000000000000
ANG=                      1.8897259885789233
ANGSTROM=                      1.8897259885789233
IGNORE_UNDEF=                      2.0000000000000000
STRICTCHECK=                      0.0000000000000000
SEW_ONEEL=                      0.0000000000000000
CPPDONE=FALSE
DKROLL_DONE=                      0.0000000000000000
FOCKDONE=TRUE
GRADONE=FALSE
HESSDONE=TRUE
INTDONE=TRUE
SCFDONE=TRUE
MODUL_LCCSD=TRUE
MODUL_COSMO=TRUE
MODUL_VSCF=TRUE
MODUL_CFIT=TRUE
MODUL_MRCC=FALSE
MODUL_CIDFT=TRUE
MODUL_CC2=TRUE
MRCC_EXEC=
FITC_AO_SAVED=FALSE
FITC_MO_SAVED=FALSE
LSTYP=SEWARD
INTYP=INTS
GEOMTYP=ZMAT
GRADTYP=ALASKA
DIRECT=FALSE
DKROLL=FALSE
SYNCM=                      0.0000000000000000
DFTNAME=B3LYP
DFTFUNC=B88
BASIS=STO-3G
BASISSETS=
ZSIGNX=
ZSIGNY=
ZSIGNZ=
CHARGE=
SCFCHARGE=
MCCHARGE=
CICHARGE=
CCCHARGE=
NELEC=                     70.0000000000000000
!NELEC=                     70.0000000000000000
SCFNELEC=                     70.0000000000000000
MCNELEC=                     70.0000000000000000
CINELEC=                     70.0000000000000000
CCNELEC=                     70.0000000000000000
SPIN=                      0.0000000000000000
!SPIN=                      0.0000000000000000
SCFSPIN=                      0.0000000000000000
MCSPIN=                      0.0000000000000000
CISPIN=                      0.0000000000000000
CCSPIN=                      0.0000000000000000
STATE=                      0.0000000000000000
SCFSTATE=                      0.0000000000000000
MCSTATE=                      0.0000000000000000
CISTATE=                      0.0000000000000000
SYMMETRY=                      0.0000000000000000
!SYMMETRY=                      0.0000000000000000
SCFSYMMETRY=                      0.0000000000000000
MCSYMMETRY=                      0.0000000000000000
CISYMMETRY=                      0.0000000000000000
CCSYMMETRY=                      0.0000000000000000
SCFSYMM=                      0.0000000000000000
MCSYMM=                      0.0000000000000000
CISYMM=                      0.0000000000000000
CCSYMM=                      0.0000000000000000
SCFSYM=                      0.0000000000000000
MCSYM=                      0.0000000000000000
CISYM=                      0.0000000000000000
CCSYM=                      0.0000000000000000
ZSYMEL=
WEIGHT=
MCWEIGHT=
LQUANT=
MCLQUANT=
OPTCONV=
QSDSTEP=                      0.0000000000000000
QSDIRC=                      0.0000000000000000
PROGRAM=FREQ
CPUSTEP=                      0.0100000000002183
SYSSTEP=                      0.0000000000000000
WALLSTEP=                      0.0000000000000000
!PERT=                      0.0000000000000000
!DFMP2=                      0.0000000000000000
!DFSCF=                      0.0000000000000000
!DFHFENERG=                      0.0000000000000000
!SCSGRD=                      0.0000000000000000
ATCHARGE=                      0.0000000000000000
BASINP=                    610.0000000000000000
CARTESIAN=                    610.0000000000000000
CFIT=                    610.0000000000000000
CFIT_FRED=                    610.0000000000000000
CFIT_FRED_THR=                    610.0000000000000000
CHII2=                    610.0000000000000000
CHIRS=                    610.0000000000000000
COEFF=                    610.0000000000000000
CPU2IDX_CFIT=                    610.0000000000000000
CPU3IDX_CFIT=                    610.0000000000000000
CPUASMBL_CFIT=                    610.0000000000000000
CPUBLAS1=                    610.0000000000000000
CPUBLAS2=                    610.0000000000000000
CPUBLAS3=                    610.0000000000000000
CPUINT_DTRAF=                    610.0000000000000000
CPUSOLVE_CFIT=                    610.0000000000000000
CPUTOT=                   4288.2799999999997453
CPUTR1_CFIT=                   4288.2799999999997453
CPUTR2_CFIT=                   4288.2799999999997453
CPUINV_CFIT=                   4288.2799999999997453
CPUFIT_CFIT=                   4288.2799999999997453
CPUTRANS_CFIT=                   4288.2799999999997453
CPUSCREEN_CFIT=                   4288.2799999999997453
CPUTRANS_DTRAF=                   4288.2799999999997453
CPUTRA_DTRAF=                   4288.2799999999997453
DALTON=                   4288.2799999999997453
DARW=                   4288.2799999999997453
DECAY=                   4288.2799999999997453
DELE_CFIT=                   4288.2799999999997453
DELG_CFIT=                   4288.2799999999997453
DELTA=                   4288.2799999999997453
DFTEXFAC=                      0.2000000000000000
DFTFAC=                      0.7200000000000000
DFTFUN=                    -46.5257680309307631
DFTFUNS=                    -55.3122155993910667
DMEX=                    -55.3122155993910667
DMEY=                    -55.3122155993910667
DMEZ=                    -55.3122155993910667
DMNX=                    -55.3122155993910667
DMNY=                    -55.3122155993910667
DMNZ=                    -55.3122155993910667
DMSCF=                    -55.3122155993910667
DMSCF_Efield=                    -55.3122155993910667
DMSCF_I=                    -55.3122155993910667
DMSCF_J=                    -55.3122155993910667
DMSCF_K=                    -55.3122155993910667
DMSCF_N1=                    -55.3122155993910667
DMSCF_N2=                    -55.3122155993910667
DMSCF_NUC=                    -55.3122155993910667
DMSCF_T=                    -55.3122155993910667
DMSCF_V=                    -55.3122155993910667
DMX=                     -0.0000000900756616
DMY=                     -0.0000000133821050
DMZ=                     -0.0000000000000017
DMZCOR=                     -0.0000000000000017
DM_RHO1=                     -0.0000000000000017
DM_RVAL=                     -0.0000000000000017
DUMMYATOMS=                     -0.0000000000000017
FREQUENCIES=                      0.0000275319721120
EDISP=                      0.0000275319721120
EEDISP=                      0.0000275319721120
EINTRA=                      0.0000275319721120
EIONIC=                      0.0000275319721120
EMP2=                      0.0000275319721120
EMP2_SING=                      0.0000275319721120
EMP2_TRIP=                      0.0000275319721120
EMP2_SCS=                      0.0000275319721120
ECSING=                      0.0000275319721120
ECTRIP=                      0.0000275319721120
EMP2R12_2AD=                      0.0000275319721120
EMP2R12_2A=                      0.0000275319721120
EMP2R12_2AP=                      0.0000275319721120
EMP2R12_2SAD=                      0.0000275319721120
EMP2R12_2SA=                      0.0000275319721120
EMP2R12_2SAP=                      0.0000275319721120
EMP2R12_2B=                      0.0000275319721120
EMP2_R12=                      0.0000275319721120
EMP2_R12_A=                      0.0000275319721120
EMP2_R12_AP=                      0.0000275319721120
EMP2_R12_AD=                      0.0000275319721120
EMP2_R12_2SA=                      0.0000275319721120
EMP2_R12_2SAP=                      0.0000275319721120
EMP2_R12_2SAD=                      0.0000275319721120
EMP2_R12_2A=                      0.0000275319721120
EMP2_R12_2AP=                      0.0000275319721120
EMP2_R12_2B=                      0.0000275319721120
EMP2_R12_DIAG=                      0.0000275319721120
EMP2_R12_STRONG=                      0.0000275319721120
EMP2_R12_CLOSE=                      0.0000275319721120
EMP2_R12_WEAK=                      0.0000275319721120
EMP2_R12_DIST=                      0.0000275319721120
EMP2_R12_SING=                      0.0000275319721120
EMP2_R12_TRIP=                      0.0000275319721120
EMP2_R12_SCS=                      0.0000275319721120
EMP2R=                      0.0000275319721120
EMP3=                      0.0000275319721120
EMP3R=                      0.0000275319721120
EMP4=                      0.0000275319721120
ENERGC=                      0.0000275319721120
ENERGD=                      0.0000275319721120
ENERGP=                      0.0000275319721120
ENERGR=                      0.0000275319721120
ENERGRR=                      0.0000275319721120
ENERGS=                      0.0000275319721120
ENERGT=                      0.0000275319721120
ENERGU=                      0.0000275319721120
ENERGW=                      0.0000275319721120
ENERGY=                   -382.0507739527325839
ENERGY_MP=                   -382.0507739527325839
ENUC=                    445.8104227069500212
EPDIST=                    445.8104227069500212
EPDIST_R12=                    445.8104227069500212
EPSUM=                    445.8104227069500212
EPSUM_R12=                    445.8104227069500212
EPS1=                    -10.0162141856064384
EPS2=                     -0.3208088931067219
EPS3=                    -10.0162141840900691
EPS4=                     -0.2598499999609719
EPS5=                     -0.2598499999609719
EPS6=                     -0.2598499999609719
EPS7=                     -0.2598499999609719
EPS8=                     -0.2598499999609719
EREL=                     -0.2598499999609719
FLOPBLAS1=                     -0.2598499999609719
FLOPBLAS2=                     -0.2598499999609719
FLOPBLAS3=                     -0.2598499999609719
FLOPDGM=                     -0.2598499999609719
FLOPDGV=                     -0.2598499999609719
FLOPMXM=                     -0.2598499999609719
FLOPMXV=                     -0.2598499999609719
FREQSTEP=                     51.0000000000000000
!RS2GRSTATE=                     51.0000000000000000
!RS2GRSYM=                     51.0000000000000000
GRADENERG=                   -382.0507726897108114
GRADEXFAC=                      0.2000000000000000
GRADMETHOD=                      1.0000000000000000
GRADRECORD=                      1.0000000000000000
GRADX=                      1.0000000000000000
GRADY=                      1.0000000000000000
GRADZ=                      1.0000000000000000
GRADVAR=                      1.0000000000000000
GRID=                   1800.2000000000000455
GRID_FREEZE=                   1800.2000000000000455
!GRID_FREEZE=                     -1.0000000000000000
GRID_WEIGHT_CUT=                     -1.0000000000000000
GRID_BLOCKSIZE=                     -1.0000000000000000
GRID_SPARSITY=                      0.1398975791433892
GRID_RMAX=                      4.8605065258230979
GTOTAL=                      4.8605065258230979
HDIA=                      4.8605065258230979
HDIACI=                      4.8605065258230979
HEAT=                      4.8605065258230979
HTOTAL=                      4.8605065258230979
INCR_CORR=                      4.8605065258230979
INCR_COUNT=                      4.8605065258230979
INCR_READY=                      4.8605065258230979
ISCHI=                      4.8605065258230979
ITERATIONS=                      3.0000000000000000
KFIT=                      3.0000000000000000
LASTNELEC=                     70.0000000000000000
LASTSPIN=                      0.0000000000000000
LASTSYM=                      1.0000000000000000
LL=                      1.0000000000000000
MASSV=                      1.0000000000000000
MIN_ITER=                      1.0000000000000000
MIXANG=                      1.0000000000000000
MIXANGCI=                      1.0000000000000000
MPP_PROG=                      0.0000000000000000
MSENERGY=                      0.0000000000000000
NACME=                      0.0000000000000000
NBAS_CFIT=                      0.0000000000000000
NEWREC=                      0.0000000000000000
NGRID=                 140128.0000000000000000
NPROC_MPP=                      1.0000000000000000
NPROC_SMP=                      1.0000000000000000
NUMSTEP=                      0.0000000000000000
OPNUC=                      0.0000000000000000
OPTCONVMX=                      0.0000000000000000
OPTCONVRMS=                      0.0000000000000000
OPTGRAD=                      0.0000000000000000
OPTGRADMX=                      0.0000000000000000
OPTGRADRMS=                      0.0000000000000000
OPTRMSMAX=                      0.0000000000000000
OPTSTEP=                      0.0000000000000000
ORBITAL=                   2100.1999999999998181
PAOINT_CFIT=                   2100.1999999999998181
PENALTY=                   2100.1999999999998181
PH1INT_CFIT=                   2100.1999999999998181
PH1VEC_CFIT=                   2100.1999999999998181
PH2INT_CFIT=                   2100.1999999999998181
PHASE=                   2100.1999999999998181
PI=                      3.1415926535897931
PMOINT_CFIT=                      3.1415926535897931
PMOVEC_CFIT=                      3.1415926535897931
POISSON_ECORR=                      3.1415926535897931
POISSON_ERROR=                      3.1415926535897931
POLXX=                      3.1415926535897931
POLXY=                      3.1415926535897931
POLXZ=                      3.1415926535897931
POLYY=                      3.1415926535897931
POLYZ=                      3.1415926535897931
POLZZ=                      3.1415926535897931
POLYX=                      3.1415926535897931
POLZX=                      3.1415926535897931
POLZY=                      3.1415926535897931
POVINT_CFIT=                      3.1415926535897931
ROOT=                      3.1415926535897931
RPDIST=                      3.1415926535897931
RPMIN=                      3.1415926535897931
RPMAX=                      3.1415926535897931
EPCON=                      3.1415926535897931
EPDIAG=                      3.1415926535897931
!MCACT=                      3.1415926535897931
!MCCLOSED=                      3.1415926535897931
!MCFREEZE=                      3.1415926535897931
!MCMS2=                      3.1415926535897931
!MCNEL=                      3.1415926535897931
!MCNSTSYM=                      3.1415926535897931
!MCSTATE=                      3.1415926535897931
!MCSYM=                      3.1415926535897931
!MCWEIGHT=                      3.1415926535897931
SEIG_MIN=                      0.1815060123387498
SEWPROP=                      1.0000000000000000
SMAT=                      1.0000000000000000
SMATCI=                      1.0000000000000000
STATUS=                      1.0000000000000000
SYSBLAS1=                      1.0000000000000000
SYSBLAS2=                      1.0000000000000000
SYSBLAS3=                      1.0000000000000000
SYSTEM_RC=                      1.0000000000000000
SYSTOT=                    138.9099999999999966
T1DIAG=                    138.9099999999999966
D1DIAG=                    138.9099999999999966
TASK=                    138.9099999999999966
TROV=                    138.9099999999999966
HMAT=                    138.9099999999999966
UMAT=                    138.9099999999999966
UMATCI=                    138.9099999999999966
VERSION=                2006002.0000000000000000
WALLBLAS1=                2006002.0000000000000000
WALLBLAS2=                2006002.0000000000000000
WALLBLAS3=                2006002.0000000000000000
WALLTOT=                   4448.5799999999999272
ZPE=                      0.1770547153043222
!DFBASIS_COUL=                      0.1770547153043222
!DFBASIS_EXCH=                      0.1770547153043222
!DFBASIS_MP2=                      0.1770547153043222
!DFBASIS_CCSD=                      0.1770547153043222
!RIBASIS_MP2=                      0.1770547153043222
MODULE_ALMLOF=                      0.1770547153043222
MODULE_BENCH=                      0.1770547153043222
MODULE_CFIT=                      0.1770547153043222
MODULE_DEVELOP=                      0.1770547153043222
MODULE_DIRECT=                      0.1770547153043222
MODULE_DMSCF=                      0.1770547153043222
MODULE_DOC=                      0.1770547153043222
MODULE_DOCDEV=                      0.1770547153043222
MODULE_LCCSD=                      0.1770547153043222
MODULE_LOCAL=                      0.1770547153043222
MODULE_LX=                      0.1770547153043222
MODULE_MPP=                      0.1770547153043222
MODULE_COSMO=                      0.1770547153043222
MODULE_DFIT=                      0.1770547153043222
MODULE_EXPLICIT=                      0.1770547153043222
MODULE_VSCF=                      0.1770547153043222
MODULE_MRCC=                      0.1770547153043222
MODULE_CIDFT=                      0.1770547153043222
MODULE_CC2=                      0.1770547153043222
MODULE_SLATER=                      0.1770547153043222
MODULE_GCC=                      0.1770547153043222
DATE= 25-Sep-06
LASTORB=RKS
MACHINE=Linux-2.6.18-ck1/agmar(i686) 32 bit version (ifort9.1/mkl_ia32)
METHODC=
METHODT=
OUTPUT=/home/bounouar/src/cclib/data/Molpro/basicMolpro2006/dvb_ir.out
PGROUP=C1
SEMI=
TIME=11:39:41
VDIAG=
UDIAG=
!AOINTADDSC=
TRANSFORM_FORCE=
SOLVE_ITER=
VSCF_FREQ=
VCI_FREQ=
!SURFREC=                      0.0000000000000000
!VSCFREC=                      0.0000000000000000
!VCIREC=                      0.0000000000000000
!VMP2REC=                      0.0000000000000000
!SCFORB=                  21002.0000000000000000
!CIOCC=                  21002.0000000000000000
!CICORE=                  21002.0000000000000000
!CICLOS=                  21002.0000000000000000
!UNO_OCC=                  21002.0000000000000000
!UNO_CLOSED=                  21002.0000000000000000
!CINSTSYM=                  21002.0000000000000000
!CIISTSYM=                  21002.0000000000000000
!CIISTMS2=                  21002.0000000000000000
!CIISTNEL=                  21002.0000000000000000
!CIMS2=                  21002.0000000000000000
!NEWMOL=                      0.0000000000000000
!NEWSYM=                      0.0000000000000000
!NEWORIENT=                      0.0000000000000000
SLFILES=slscratch
NGSSTO=                      9.0000000000000000
SIN=SIN
COS=COS
TAN=TAN
ACOS=ACOS
ASIN=ASIN
ATAN=ATAN
COSH=COSH
SINH=SINH
TANH=TANH
ABS=ABS
MOD=MOD
ERF=ERF
REFC=REFC
ERFC=ERFC
HYPOT=HYPOT
J0=J0
J1=J1
JN=JN
GAMMA=GAMMA
LGAMMA=LGAMMA
Y0=Y0
Y1=Y1
YN=YN
EXP=EXP
LOG=LOG
LOG10=LOG10
SQRT=SQRT
INT=INT
NINT=NINT
MAX=MAX
MIN=MIN
COSMO=                      0.0000000000000000
COSMOIT=                      0.0000000000000000
COSMOES=                      0.0000000000000000
COSMOEDS=                      0.0000000000000000
COSMOEC=                      0.0000000000000000
COSMOEDCORR=                      0.0000000000000000
FEPSI=                      1.0000000000000000
SL_IsMM=                      0.0000000000000000
SL_NSYM=                      1.0000000000000000
SL_System_BitSwi=                     32.0000000000000000
SL_Unique_atoms=                     20.0000000000000000
SL_Last_energy=                     20.0000000000000000
SL_GRAD=                      0.0000000000000000
SL_MAXUPD_Hessia=                      5.0000000000000000
SL_N_PRINT_CODES=                      5.0000000000000000
SL_PRINT_CODES=                      0.0000000000000000
SL_BasType=                      0.0000000000000000
SL_Energy_Pred=                      0.0000000000000000
SL_New_Coords=                      0.0000000000000000
SL_Total_Nuclear=                      0.0000000000000000
SL_Highest_Mltpl=                      1.0000000000000000
SCFOCC=                      1.0000000000000000
SCFCLOSED=                      1.0000000000000000
SCFCORE=                      1.0000000000000000
MCOCC=                      1.0000000000000000
MCCLOSED=                      1.0000000000000000
MCFROZEN=                      1.0000000000000000
MCCORE=                      1.0000000000000000
CIOCC=                      1.0000000000000000
CICLOSED=                      1.0000000000000000
CICORE=                      1.0000000000000000
CCOCC=                      1.0000000000000000
CCCLOSED=                      1.0000000000000000
CCCORE=                      1.0000000000000000
SRXC=                      1.0000000000000000
SRC=                      1.0000000000000000
SRX=                      1.0000000000000000
SRH=                      1.0000000000000000
E_EXCHANGE=                      1.0000000000000000
!LATTICE=                     -1.0000000000000000
!NEWLATTICE=                      0.0000000000000000
!LATGRAD_VAR=FALSE
!SEW_LATTICE=                      1.0000000000000000
LATGRADX=                      1.0000000000000000
LATGRADY=                      1.0000000000000000
LATGRADZ=                      1.0000000000000000
!SCALTABINIT=                      1.0000000000000000
!LOCAL=                      0.0000000000000000
!SAVEOCC=                      0.0000000000000000
!SAVEDOM=                     -1.0000000000000000
!RESTDOM=                     -1.0000000000000000
!SAVEDOM_HF=                     -1.0000000000000000
!RESTDOM_HF=                     -1.0000000000000000
!HESSREC=                   5300.1999999999998181
!FREQREC=                   5400.1999999999998181
!NMODREC=                   5450.1999999999998181
!GTASKS=                      0.0000000000000000
!HTASKS=                   5500.1999999999998181
!THRCHG=                      0.1000000000000000
!DEBUG=                     -1.0000000000000000
!CFIT_CPHF=                      0.0000000000000000
!RDOMAUX_CPHF=                      5.0000000000000000
!THRAO_CPHF=                      0.0000000000100000
!THRMO_CPHF=                      0.0000000000100000
!THROV_CPHF=                      0.0000000000010000
!THRSW_CPHF=                      0.0000000001000000
!THRPROD_CPHF=                      0.0000000000100000
!THRAOPR_CPHF=                      0.0000000000010000
!CFIT_SCFGRD=                      0.0000000000000000
!RDOMAUX_SCFGRD=                      7.0000000000000000
!THRAO_SCFGRD=                      0.0000000000100000
!THRMO_SCFGRD=                      0.0000000000100000
!THROV_SCFGRD=                      0.0000000000010000
!THRSW_SCFGRD=                      0.0000000001000000
!THRPROD_SCFGRD=                      0.0000000000100000
!THRAOPR_SCFGRD=                      0.0000000000010000
!LOCFIT_SCF=                      0.0000000000000000
!LOCFIT_MP2=                     -1.0000000000000000
RIDOM=                      0.0000000000000000
FCI_METHOD=                      0.0000000000000000
!CC2_METHOD=                      0.0000000000000000
BASIS2006=FALSE
GX1=                      2.6765549737381096
GY1=                      0.4450535011568496
GZ1=                      0.0000000000000000
GX2=                      0.9240788607675006
GY2=                      2.4838953660307497
GZ2=                      0.0000000000000000
GX3=                     -1.6908892532528359
GY3=                      2.0536162111156826
GZ3=                      0.0000000000000000
GX4=                     -2.6765550334534507
GY4=                     -0.4450538471656781
GZ4=                      0.0000000000000000
GX5=                     -0.9240789930483199
GY5=                     -2.4838955429091021
GZ5=                      0.0000000000000000
GX6=                      1.6908894545086537
GY6=                     -2.0536163343258167
GZ6=                      0.0000000000000000
GX7=                      5.4502279564176810
GY7=                      1.0092277453522949
GZ7=                      0.0000000000000000
GX8=                     -5.4502280418332951
GY8=                     -1.0092275416398335
GZ8=                      0.0000000000000000
GX9=                      2.9892383453544884
GY9=                     -3.6713226085802493
GZ9=                      0.0000000000000000
GX10=                     -2.9892383912748297
GY10=                      3.6713223392942957
GZ10=                      0.0000000000000000
GX11=                      1.6443354256902303
GY11=                      4.4314014234954380
GZ11=                      0.0000000000000000
GX12=                     -1.6443356426307738
GY12=                     -4.4314015433040659
GZ12=                      0.0000000000000000
GX13=                      7.3423950807454315
GY13=                     -0.6864945798151652
GZ13=                      0.0000000000000000
GX14=                     -7.3423950146050210
GY14=                      0.6864949781694035
GZ14=                      0.0000000000000000
GX15=                      5.9165122310464255
GY15=                      3.0362188917536024
GZ15=                      0.0000000000000000
GX16=                     -5.9165125084582009
GY16=                     -3.0362186149087447
GZ16=                      0.0000000000000000
GX17=                     -9.3244132007270029
GY17=                      0.0827214204365766
GZ17=                      0.0000000000000000
GX18=                      9.3244133163782337
GY18=                     -0.0827210991831586
GZ18=                      0.0000000000000000
GX19=                     -7.0120251541653111
GY19=                      2.7316255586037106
GZ19=                      0.0000000000000000
GX20=                      7.0120256927372173
GY20=                     -2.7316252430194710
GZ20=                      0.0000000000000000
CX1=                      0.0000000000000000
CY1=                      0.0000000000000000
CZ1=                      0.0000000000000000
CX2=                      0.0000000000000000
CY2=                      0.0000000000000000
CZ2=                      0.0000000000000000
CX3=                      0.0000000000000000
CY3=                      0.0000000000000000
CZ3=                      0.0000000000000000
CX4=                      0.0000000000000000
CY4=                      0.0000000000000000
CZ4=                      0.0000000000000000
CX5=                      0.0000000000000000
CY5=                      0.0000000000000000
CZ5=                      0.0000000000000000
CX6=                      0.0000000000000000
CY6=                      0.0000000000000000
CZ6=                      0.0000000000000000
CX7=                      0.0000000000000000
CY7=                      0.0000000000000000
CZ7=                      0.0000000000000000
CX8=                      0.0000000000000000
CY8=                      0.0000000000000000
CZ8=                      0.0000000000000000
HX9=                      0.0000000000000000
HY9=                      0.0000000000000000
HZ9=                      0.0000000000000000
HX10=                      0.0000000000000000
HY10=                      0.0000000000000000
HZ10=                      0.0000000000000000
HX11=                      0.0000000000000000
HY11=                      0.0000000000000000
HZ11=                      0.0000000000000000
HX12=                      0.0000000000000000
HY12=                      0.0000000000000000
HZ12=                      0.0000000000000000
CX13=                      0.0000000000000000
CY13=                      0.0000000000000000
CZ13=                      0.0000000000000000
CX14=                      0.0000000000000000
CY14=                      0.0000000000000000
CZ14=                      0.0000000000000000
HX15=                      0.0000000000000000
HY15=                      0.0000000000000000
HZ15=                      0.0000000000000000
HX16=                      0.0000000000000000
HY16=                      0.0000000000000000
HZ16=                      0.0000000000000000
HX17=                      0.0000000000000000
HY17=                      0.0000000000000000
HZ17=                      0.0000000000000000
HX18=                      0.0000000000000000
HY18=                      0.0000000000000000
HZ18=                      0.0000000000000000
HX19=                      0.0000000000000000
HY19=                      0.0000000000000000
HZ19=                      0.0000000000000000
HX20=                      0.0000000000000000
HY20=                      0.0000000000000000
HZ20=                      0.0000000000000000
[Atoms] Angs
C     1    6         1.4163719978        0.2355121874        0.0000000000
C     2    6         0.4890015094        1.3144209166        0.0000000000
C     3    6        -0.8947801234        1.0867269771        0.0000000000
C     4    6        -1.4163720294       -0.2355123705        0.0000000000
C     5    6        -0.4890015794       -1.3144210102        0.0000000000
C     6    6         0.8947802299       -1.0867270423        0.0000000000
C     7    6         2.8841366364        0.5340603619        0.0000000000
C     8    6        -2.8841366816       -0.5340602541        0.0000000000
H     9    1         1.5818369242       -1.9427803982        0.0000000000
H    10    1        -1.5818369485        1.9427802557        0.0000000000
H    11    1         0.8701448970        2.3449968145        0.0000000000
H    12    1        -0.8701450118       -2.3449968779        0.0000000000
C    13    6         3.8854284299       -0.3632773132        0.0000000000
C    14    6        -3.8854283949        0.3632775240        0.0000000000
H    15    1         3.1308836661        1.6066979605        0.0000000000
H    16    1        -3.1308838129       -1.6066978140        0.0000000000