
 CPU=P4 600.000 MHz
 mxmblk= 64  mxmbln= 64  ncache=  16384  mindgm= 33  mindgv= 33  mindgc= 65  mindgl= 65  mindgr=  1  noblas=0  nroll=2  minvec=7
 default implementation of scratch files=df  

 ***,divinylbenzene geom opt
 file,2,dvb_gopt.wfu
 memory,100,m
                                                                                 !gdirect
 gthresh,energy=1.d-7,grid=1.d-7
 gprint,basis,orbitals
 basis=sto-3g
 geometry={nosym,angstrom;
  x1
  c   1 cxx2
  c   1 cxx3       2   60.000
  c   1 cxx4       3   60.000     2 180.000
  c   1 cxx2       4   60.000     3 180.000
  c   1 cxx3       5   60.000     4 180.000
  c   1 cxx4       6   60.000     5 180.000
  c   2 cc8        3 ccc8         4 180.000
  c   5 cc8        6 ccc8         7 180.000
  h   7 hc10       2 hcc10        1 180.000
  h   4 hc10       5 hcc10        1 180.000
  h   3 hc12       2 hcc12        1 180.000
  h   6 hc12       5 hcc12        1 180.000
  c   8 cc14       2 ccc14        3 180.000
  c   9 cc14       5 ccc14        6 180.000
  h   8 hc16       2 hcc16        3   0.000
  h   9 hc16       5 hcc16        6   0.000
  h  15 hc18       9 hcc18        5 180.000
  h  14 hc18       8 hcc18        2 180.000
  h  15 hc20       9 hcc20        5   0.000
  h  14 hc20       8 hcc20        2   0.000
 }
 cxx2=       1.430000
 cxx3=       1.403000
 cxx4=       1.409000
 cc8=        1.450000
 ccc8=       120.000
 hc10=       1.097000
 hcc10=      120.000
 hc12=       1.098720
 hcc12=      120.000
 cc14=       1.342300
 ccc14=      120.000
 hc16=       1.100000
 hcc16=      120.000
 hc18=       1.096600
 hcc18=      109.471
 hc20=       1.095900
 hcc20=      126.000
  
 ks,b3lyp;accu,12;
 {optg,method=SLRF;}
 put,molden,dvb_gopt.molden

 Variables initialized (535), CPU time= 0.02 sec
 Commands  initialized (294), CPU time= 0.05 sec, 434 directives.
 Default parameters read. Elapsed time= 0.21 sec
 Checking input...
 Passed
1


                                         ***  PROGRAM SYSTEM MOLPRO  ***
                         Copyright, University College Cardiff Consultants Limited, 2004

                                    Version 2006.2 linked 30 Aug 2006 18:19:46


 **********************************************************************************************************************************
 LABEL *   divinylbenzene geom opt                                                       
 Linux-2.6.18-ck1/agmar(i686) 32 bit version (ifort9.1/mkl_ia32)                         DATE:  24-Sep-06         TIME: 23:01:15  
 **********************************************************************************************************************************

 Installed patches: sortpatchlist acml acml_mv approxB arinp_newmol2 basis_rectangle
                    bccd_save begincepa casvb_data2 cis_triplet citation cleanup_files
                    config_fort df_lcc2_prop df_lcc2_prop2 dfcis_membug2 dflcc2_left1 dflcc2_noinvert1
                    dflcc2_noinvert3 dflcc2_unidom dflcc2_unidom2 dflcc2_unidom_g95 dft_funs dftfun_bib
                    dkh_doc doc_PDFDocEncoded doc_PS doc_ltx2 doc_makefile_fix doc_mk
                    doc_mk2 doc_mk3 doc_version ecerfpbe_numstab eom_idlp2 eom_registry
                    f12_exch9 f12_integrals f12_integrals_undef f12_print fci_len_trim fcicc3
                    fcicc4 fix1184 fix1186 fix1189 fix1209 fix1215
                    fix1219 fix1230 fix1233 fix1235a fix1239 fix1243p1a
                    fix1246 fujitsu_fflush g95opt gcc1 gcc10 gcc5
                    gcc8 gcc9 get_occsym2 getoptlong ia64tuning ibm_driver
                    ifort64 installscripts load_basis2 load_basis3 locpol mac_g95a
                    mac_qfixed mcfrozen mcscf_hessian3 merge_doc_makefile2 mixedfock2 molpro_linux
                    molproc_empty mp3dip mppbench_nocheck optg_gaussian patch_depend patcher_local
                    printblank sapt_c6 semi_dgpp semi_dgss semi_dhsp slater2
                    sun tru64_1 tru64_parse2 vscf_4Dsym vscf_64bit vscf_ext1D
                    vscf_frag2 vscf_fragsym vscf_lab3D vscf_modmppx vscf_mppx vscf_polin
                    vscf_restart1 vscf_semi vscf_tapsav vscf_testjob vscf_warn xccden_opt
                    xt3_gcc
 **********************************************************************************************************************************

 Variable memory set to    8000000 words,  buffer space   230000 words
 


 Permanent file  2  dvb_gopt.wfu     assigned.  Implementation=df    Size=  1.98 MB
 

 PROGRAM * RESTART 


 Reading variables from file 2

 FOCKDONE        =      1.00000000
 SCFDONE         =      1.00000000
 DIRECT          =      0.00000000
 DFTNAME         =    B3LYP
 DFTFUNC         =    B88
 DFTFUNC         =    DIRAC
 DFTFUNC         =    LYP
 DFTFUNC         =    VWN5
 BASIS           =    STO-3G
 NELEC           =     70.00000000
 SPIN            =      0.00000000
 PROGRAM         =    KS-SCF
 CPUSTEP         =     48.98000000
 SYSSTEP         =      2.75000000
 WALLSTEP        =     54.16000000
 BASINP          =    610.00000000
 CPUTOT          =     54.27000000
 DFTEXFAC        =      0.20000000
 DFTFAC(1:4)     =      0.72000000     0.08000000     0.81000000     0.19000000
 DFTFUN          =    -46.57358844
 DFTFUNS(1:4)    =    -55.36399427   -49.85170102    -2.31135562    -4.47988647
 DMX             =      0.00000000
 DMY             =      0.00000000
 DMZ             =      0.00000000
 ENERGY          =   -382.02948878
 ENUC            =    452.43145287
 EPS1(1:35)      =    -10.01138863   -10.01134006   -10.00065651   -10.00065549    -9.99844826    -9.99844651
                       -9.99779836    -9.99765683    -9.98407137    -9.98407123    -0.80766354    -0.76062645
                       -0.71808643    -0.69383678    -0.65949589    -0.58670941    -0.55483587    -0.52687080
                       -0.50035799    -0.46313141    -0.44161481    -0.40554654    -0.40018592    -0.37871076
                       -0.36681822    -0.35273244    -0.33705566    -0.32252527    -0.30885660    -0.28520981
                       -0.28311555    -0.26645246    -0.20704210    -0.18789084    -0.14250906
 GRADEXFAC       =      0.20000000
 GRADMETHOD      =      1.00000000
 GRID            =   1800.20000000
 GRID_SPARSITY   =      0.13327183
 GRID_RMAX       =      4.96689143
 ITERATIONS      =     13.00000000
 LASTNELEC       =     70.00000000
 LASTSPIN        =      0.00000000
 LASTSYM         =      1.00000000
 NGRID           =  25364.00000000
 ORBITAL         =   2100.20000000
 SEIG_MIN        =      0.17835584
 STATUS          =      1.00000000
 SYSTOT          =      2.89000000
 WALLTOT         =     59.67000000
 LASTORB         =    RKS
 PGROUP          =    C1  
 CXX2            =      1.43000000
 CXX3            =      1.40300000
 CXX4            =      1.40900000
 CC8             =      1.45000000
 CCC8            =    120.00000000
 HC10            =      1.09700000
 HCC10           =    120.00000000
 HC12            =      1.09872000
 HCC12           =    120.00000000
 CC14            =      1.34230000
 CCC14           =    120.00000000
 HC16            =      1.10000000
 HCC16           =    120.00000000
 HC18            =      1.09660000
 HCC18           =    109.47100000
 HC20            =      1.09590000
 HCC20           =    126.00000000

 Geometry written to block  1 of record 700


 **********************************************************************************************************************************
 DATASETS  * FILE   NREC   LENGTH (MB)   RECORD NAMES
              2       7        2.08       500      610      700     1000     1800     1801     2100   
                                          VAR    BASINP    GEOM     BASIS    GRID     GRID      RKS  
 
 PROGRAMS   *        TOTAL   RESTART
 CPU TIMES  *         0.52      0.04
 REAL TIME  *         0.53 SEC
 DISK USED  *         0.03 MB      
 **********************************************************************************************************************************

 THRESHOLDS:

 ZERO    =  1.00D-12  ONEINT  =  1.00D-12  TWOINT  =  1.00D-11  PREFAC  =  1.00D-14  LOCALI  =  1.00D-09  EORDER  =  1.00D-04
 ENERGY  =  1.00D-07  ETEST   =  0.00D+00  EDENS   =  0.00D+00  THRDEDEF=  1.00D-06  GRADIENT=  1.00D-02  STEP    =  1.00D-03
 ORBITAL =  1.00D-05  CIVEC   =  1.00D-05  COEFF   =  1.00D-04  PRINTCI =  5.00D-02  PUNCHCI =  9.90D+01  OPTGRAD =  3.00D-04
 OPTENERG=  1.00D-06  OPTSTEP =  3.00D-04  THRGRAD =  1.00D-10  COMPRESS=  1.00D-11  VARMIN  =  1.00D-07  VARMAX  =  1.00D-03
 THRDOUB =  0.00D+00  THRDIV  =  1.00D-05  THRRED  =  1.00D-07  THRPSP  =  1.00D+00  THRDC   =  1.00D-10  THRCS   =  1.00D-10
 THRNRM  =  1.00D-08  THREQ   =  0.00D+00  THRDE   =  1.00D+00  THRREF  =  1.00D-05  SPARFAC =  1.00D+00  THRDLP  =  1.00D-07
 THRDIA  =  1.00D-10  THRDLS  =  1.00D-07  THRGPS  =  0.00D+00  THRKEX  =  0.00D+00  THRDIS  =  2.00D-01  THRVAR  =  1.00D-10
 THRLOC  =  1.00D-06  THRGAP  =  1.00D-06  THRLOCT = -1.00D+00  THRGAPT = -1.00D+00  THRORB  =  1.00D-06  THRMLTP =  0.00D+00
 THRCPQCI=  1.00D-10  KEXTA   =  0.00D+00  THRCOARS=  0.00D+00  SYMTOL  =  1.00D-06  GRADTOL =  1.00D-06  THROVL  =  1.00D-08
 THRORTH =  1.00D-08  GRID    =  1.00D-07  GRIDMAX =  1.00D-03  DTMAX   =  0.00D+00



 Variable memory set to  100000000 words,  buffer space   230000 words
 
 SETTING BASIS          =    STO-3G
 SETTING CXX2           =         1.43000000                                  
 SETTING CXX3           =         1.40300000                                  
 SETTING CXX4           =         1.40900000                                  
 SETTING CC8            =         1.45000000                                  
 SETTING CCC8           =       120.00000000                                  
 SETTING HC10           =         1.09700000                                  
 SETTING HCC10          =       120.00000000                                  
 SETTING HC12           =         1.09872000                                  
 SETTING HCC12          =       120.00000000                                  
 SETTING CC14           =         1.34230000                                  
 SETTING CCC14          =       120.00000000                                  
 SETTING HC16           =         1.10000000                                  
 SETTING HCC16          =       120.00000000                                  
 SETTING HC18           =         1.09660000                                  
 SETTING HCC18          =       109.47100000                                  
 SETTING HC20           =         1.09590000                                  
 SETTING HCC20          =       126.00000000                                  


 Recomputing integrals since basis changed


 Using spherical harmonics

 Library entry C      S STO-3G               selected for orbital group  1
 Library entry C      P STO-3G               selected for orbital group  1
 Library entry H      S STO-3G               selected for orbital group  2

1PROGRAM * SEWARD (Integral evaluation for generally contracted gaussian basis sets)     Author: Roland Lindh, 1990

 Geometry written to block  1 of record 700

 Orientation using atomic masses  
 Molecule type: Asymmetric top,     Order of principal axis = 2
 Rotational constants:       4.5175472      0.7291343      0.6278061 GHz

 Point group  C1  



 ATOMIC COORDINATES

 NR  ATOM    CHARGE       X              Y              Z

   1  C       6.00    2.651107080    0.523546236    0.000000000
   2  C       6.00    0.855682047    2.509406975    0.000000000
   3  C       6.00   -1.752833324    2.004280785    0.000000000
   4  C       6.00   -2.651107080   -0.523546236    0.000000000
   5  C       6.00   -0.855682047   -2.509406975    0.000000000
   6  C       6.00    1.752833324   -2.004280785    0.000000000
   7  C       6.00    5.330164351    1.098711304    0.000000000
   8  C       6.00   -5.330164351   -1.098711304    0.000000000
   9  C       6.00    7.031308534   -0.782868479    0.000000000
  10  C       6.00   -7.031308534    0.782868479    0.000000000
  11  H       1.00    3.097427459   -3.582101290    0.000000000
  12  H       1.00   -3.097427459    3.582101290    0.000000000
  13  H       1.00    1.493258712    4.485370929    0.000000000
  14  H       1.00   -1.493258712   -4.485370929    0.000000000
  15  H       1.00    5.968483787    3.076977240    0.000000000
  16  H       1.00   -5.968483787   -3.076977240    0.000000000
  17  H       1.00   -8.943814497   -0.015027804    0.000000000
  18  H       1.00    8.943814497    0.015027804    0.000000000
  19  H       1.00   -6.604866389    2.809437980    0.000000000
  20  H       1.00    6.604866389   -2.809437980    0.000000000

 Bond lengths in Bohr (Angstrom)

  1- 2  2.677161542   1- 6  2.682686189   1- 7  2.740102683   2- 3  2.656972884   2-13  2.076279738
       (1.416692980)       (1.419616498)       (1.450000000)       (1.406009602)       (1.098720000)

  3- 4  2.682686189   3-12  2.073029409   4- 5  2.677161542   4- 8  2.740102683   5- 6  2.656972884
       (1.419616498)       (1.097000000)       (1.416692980)       (1.450000000)       (1.406009602)

  5-14  2.076279738   6-11  2.073029409   7- 9  2.536579194   7-15  2.078698587   8-10  2.536579194
       (1.098720000)       (1.097000000)       (1.342300000)       (1.100000000)       (1.342300000)

  8-16  2.078698587   9-18  2.072273519   9-20  2.070950711  10-17  2.072273519  10-19  2.070950711
       (1.100000000)       (1.096600000)       (1.095900000)       (1.096600000)       (1.095900000)

 Bond angles

  1- 2- 3  121.15746356   1- 2-13  120.00000000   1- 6- 5  120.52228233   1- 6-11  120.00000000

  1- 7- 9  120.00000000   1- 7-15  120.00000000   2- 1- 6  118.32025410   2- 1- 7  120.00000000

  2- 3- 4  120.52228233   2- 3-12  119.47771767   3- 2-13  118.84253644   3- 4- 5  118.32025410

  3- 4- 8  121.67974590   4- 3-12  120.00000000   4- 5- 6  121.15746356   4- 5-14  120.00000000

  4- 8-10  120.00000000   4- 8-16  120.00000000   5- 4- 8  120.00000000   5- 6-11  119.47771767

  6- 1- 7  121.67974590   6- 5-14  118.84253644   7- 9-18  109.47100000   7- 9-20  126.00000000

  8-10-17  109.47100000   8-10-19  126.00000000   9- 7-15  120.00000000  10- 8-16  120.00000000

 17-10-19  124.52900000  18- 9-20  124.52900000


 BASIS DATA

   Nr Sym  Nuc  Type         Exponents   Contraction coefficients

   1.1 A     1  1s           71.616837     0.154329
                             13.045096     0.535328
                              3.530512     0.444635
   2.1 A     1  1s            2.941249    -0.099967
                              0.683483     0.399513
                              0.222290     0.700115
   3.1 A     1  2px           2.941249     0.155916
                              0.683483     0.607684
                              0.222290     0.391957
   4.1 A     1  2py           2.941249     0.155916
                              0.683483     0.607684
                              0.222290     0.391957
   5.1 A     1  2pz           2.941249     0.155916
                              0.683483     0.607684
                              0.222290     0.391957
   6.1 A     2  1s           71.616837     0.154329
                             13.045096     0.535328
                              3.530512     0.444635
   7.1 A     2  1s            2.941249    -0.099967
                              0.683483     0.399513
                              0.222290     0.700115
   8.1 A     2  2px           2.941249     0.155916
                              0.683483     0.607684
                              0.222290     0.391957
   9.1 A     2  2py           2.941249     0.155916
                              0.683483     0.607684
                              0.222290     0.391957
  10.1 A     2  2pz           2.941249     0.155916
                              0.683483     0.607684
                              0.222290     0.391957
  11.1 A     3  1s           71.616837     0.154329
                             13.045096     0.535328
                              3.530512     0.444635
  12.1 A     3  1s            2.941249    -0.099967
                              0.683483     0.399513
                              0.222290     0.700115
  13.1 A     3  2px           2.941249     0.155916
                              0.683483     0.607684
                              0.222290     0.391957
  14.1 A     3  2py           2.941249     0.155916
                              0.683483     0.607684
                              0.222290     0.391957
  15.1 A     3  2pz           2.941249     0.155916
                              0.683483     0.607684
                              0.222290     0.391957
  16.1 A     4  1s           71.616837     0.154329
                             13.045096     0.535328
                              3.530512     0.444635
  17.1 A     4  1s            2.941249    -0.099967
                              0.683483     0.399513
                              0.222290     0.700115
  18.1 A     4  2px           2.941249     0.155916
                              0.683483     0.607684
                              0.222290     0.391957
  19.1 A     4  2py           2.941249     0.155916
                              0.683483     0.607684
                              0.222290     0.391957
  20.1 A     4  2pz           2.941249     0.155916
                              0.683483     0.607684
                              0.222290     0.391957
  21.1 A     5  1s           71.616837     0.154329
                             13.045096     0.535328
                              3.530512     0.444635
  22.1 A     5  1s            2.941249    -0.099967
                              0.683483     0.399513
                              0.222290     0.700115
  23.1 A     5  2px           2.941249     0.155916
                              0.683483     0.607684
                              0.222290     0.391957
  24.1 A     5  2py           2.941249     0.155916
                              0.683483     0.607684
                              0.222290     0.391957
  25.1 A     5  2pz           2.941249     0.155916
                              0.683483     0.607684
                              0.222290     0.391957
  26.1 A     6  1s           71.616837     0.154329
                             13.045096     0.535328
                              3.530512     0.444635
  27.1 A     6  1s            2.941249    -0.099967
                              0.683483     0.399513
                              0.222290     0.700115
  28.1 A     6  2px           2.941249     0.155916
                              0.683483     0.607684
                              0.222290     0.391957
  29.1 A     6  2py           2.941249     0.155916
                              0.683483     0.607684
                              0.222290     0.391957
  30.1 A     6  2pz           2.941249     0.155916
                              0.683483     0.607684
                              0.222290     0.391957
  31.1 A     7  1s           71.616837     0.154329
                             13.045096     0.535328
                              3.530512     0.444635
  32.1 A     7  1s            2.941249    -0.099967
                              0.683483     0.399513
                              0.222290     0.700115
  33.1 A     7  2px           2.941249     0.155916
                              0.683483     0.607684
                              0.222290     0.391957
  34.1 A     7  2py           2.941249     0.155916
                              0.683483     0.607684
                              0.222290     0.391957
  35.1 A     7  2pz           2.941249     0.155916
                              0.683483     0.607684
                              0.222290     0.391957
  36.1 A     8  1s           71.616837     0.154329
                             13.045096     0.535328
                              3.530512     0.444635
  37.1 A     8  1s            2.941249    -0.099967
                              0.683483     0.399513
                              0.222290     0.700115
  38.1 A     8  2px           2.941249     0.155916
                              0.683483     0.607684
                              0.222290     0.391957
  39.1 A     8  2py           2.941249     0.155916
                              0.683483     0.607684
                              0.222290     0.391957
  40.1 A     8  2pz           2.941249     0.155916
                              0.683483     0.607684
                              0.222290     0.391957
  41.1 A     9  1s           71.616837     0.154329
                             13.045096     0.535328
                              3.530512     0.444635
  42.1 A     9  1s            2.941249    -0.099967
                              0.683483     0.399513
                              0.222290     0.700115
  43.1 A     9  2px           2.941249     0.155916
                              0.683483     0.607684
                              0.222290     0.391957
  44.1 A     9  2py           2.941249     0.155916
                              0.683483     0.607684
                              0.222290     0.391957
  45.1 A     9  2pz           2.941249     0.155916
                              0.683483     0.607684
                              0.222290     0.391957
  46.1 A    10  1s           71.616837     0.154329
                             13.045096     0.535328
                              3.530512     0.444635
  47.1 A    10  1s            2.941249    -0.099967
                              0.683483     0.399513
                              0.222290     0.700115
  48.1 A    10  2px           2.941249     0.155916
                              0.683483     0.607684
                              0.222290     0.391957
  49.1 A    10  2py           2.941249     0.155916
                              0.683483     0.607684
                              0.222290     0.391957
  50.1 A    10  2pz           2.941249     0.155916
                              0.683483     0.607684
                              0.222290     0.391957
  51.1 A    11  1s            3.425251     0.154329
                              0.623914     0.535328
                              0.168855     0.444635
  52.1 A    12  1s            3.425251     0.154329
                              0.623914     0.535328
                              0.168855     0.444635
  53.1 A    13  1s            3.425251     0.154329
                              0.623914     0.535328
                              0.168855     0.444635
  54.1 A    14  1s            3.425251     0.154329
                              0.623914     0.535328
                              0.168855     0.444635
  55.1 A    15  1s            3.425251     0.154329
                              0.623914     0.535328
                              0.168855     0.444635
  56.1 A    16  1s            3.425251     0.154329
                              0.623914     0.535328
                              0.168855     0.444635
  57.1 A    17  1s            3.425251     0.154329
                              0.623914     0.535328
                              0.168855     0.444635
  58.1 A    18  1s            3.425251     0.154329
                              0.623914     0.535328
                              0.168855     0.444635
  59.1 A    19  1s            3.425251     0.154329
                              0.623914     0.535328
                              0.168855     0.444635
  60.1 A    20  1s            3.425251     0.154329
                              0.623914     0.535328
                              0.168855     0.444635

 NUCLEAR CHARGE:                   70
 NUMBER OF PRIMITIVE AOS:         180
 NUMBER OF SYMMETRY AOS:          180
 NUMBER OF CONTRACTIONS:           60   (  60A   )
 NUMBER OF CORE ORBITALS:          10   (  10A   )
 NUMBER OF VALENCE ORBITALS:       50   (  50A   )


 NUCLEAR REPULSION ENERGY  452.43145287

 EXTRA SYMMETRY OF AOS IN SYMMETRY 1:   1 1 1 1 2 1 1 1 1 2   1 1 1 1 2 1 1 1 1 2   1 1 1 1 2 1 1 1 1 2   1 1 1 1 2 1 1 1 1 2
                                        1 1 1 1 2 1 1 1 1 2   1 1 1 1 1 1 1 1 1 1

 Eigenvalues of metric

         1 0.178E+00 0.185E+00 0.189E+00 0.214E+00 0.221E+00 0.244E+00 0.260E+00 0.281E+00
 

 Contracted 2-electron integrals neglected if value below      1.0D-11
 AO integral compression algorithm  1   Integral accuracy      1.0D-11

     5.767 MB (compressed) written to integral file ( 42.5%)
 

 NUMBER OF SORTED TWO-ELECTRON INTEGRALS:    1675365.     BUFFER LENGTH:  32768
 NUMBER OF SEGMENTS:   1  SEGMENT LENGTH:    1675365      RECORD LENGTH: 524288

 Memory used in sort:       2.23 MW

 SORT1 READ    1716680. AND WROTE     795052. INTEGRALS IN    3 RECORDS. CPU TIME:     0.12 SEC, REAL TIME:     0.15 SEC
 SORT2 READ     795052. AND WROTE    1675365. INTEGRALS IN   22 RECORDS. CPU TIME:     0.22 SEC, REAL TIME:     0.27 SEC

 FILE SIZES:   FILE 1:    7.2 MBYTE,  FILE 4:   12.6 MBYTE,   TOTAL:   19.8 MBYTE

 OPERATOR DM      FOR CENTER  0  COORDINATES:    0.000000    0.000000    0.000000


 **********************************************************************************************************************************
 DATASETS  * FILE   NREC   LENGTH (MB)   RECORD NAMES
              1      19        4.43       500      700      610      900      950      970     1000     1100     1400     1410   
                                          VAR     GEOM    BASINP   SYMINP    ZMAT    AOBASIS   BASIS      S        T        V 
                                         1200     1210     1080     1600      129      960     1650     1300     1700   
                                          H0       H01     AOSYM     SMH      P2S    ABASIS   MOLCAS    ERIS     OPER   
 
              2       7        2.08       500      610      700     1000     1800     1801     2100   
                                          VAR    BASINP    GEOM     BASIS    GRID     GRID      RKS  
 
 PROGRAMS   *        TOTAL       INT   RESTART
 CPU TIMES  *         5.16      4.61      0.04
 REAL TIME  *         5.33 SEC
 DISK USED  *        22.23 MB      
 **********************************************************************************************************************************

 Density functional group B3LYP=B88+DIRAC+LYP+VWN5
 Functional: B88(Automatically generated B88)                                  Gradient terms: 1
 Functional: DIRAC(Automatically generated DIRAC)                              Gradient terms: 0
 Functional: LYP(Lee-Yang-Parr gradient-corrected correlation energy (1988))   Gradient terms: 1
 Functional: VWN5(Automatically generated VWN5)                                Gradient terms: 0
 Use grid at  1800.2
 

 Exact exchange will be calculated, factor:  0.2000

 Functional: B88                       Factor:  0.7200
 Functional: DIRAC                     Factor:  0.0800
 Functional: LYP                       Factor:  0.8100
 Functional: VWN5                      Factor:  0.1900
 
 Generated new metagrid on record  1800.2 with target accuracy 1.0D-07 and 141828 points in CPU time    4.2
 Computed new grid on record 1800.1 in CPU time    6.9
   51762 words reserved for DFT integration

 PROGRAM * RKS-SCF (Restricted closed shell Kohn-Sham)     Authors: W. Meyer, H.-J. Werner, P.J. Knowles, 1993

 NUMBER OF ELECTRONS:      35+   35-    SPACE SYMMETRY=1    SPIN SYMMETRY=Singlet 
 CONVERGENCE THRESHOLDS:    1.00E-06 (Density)    1.00E-08 (Energy)
 MAX. NUMBER OF ITERATIONS:       60
 INTERPOLATION TYPE:            DIIS
 INTERPOLATION STEPS:              2 (START)      1 (STEP)
 LEVEL SHIFTS:                  0.00 (CLOSED)  0.00 (OPEN) 



 Molecular orbitals read from record     2100.2  Type=RKS/CANONICAL (state 1.1)

 Molecular orbital dump at record        2100.2
 Use fine grid record 1800.2 for energy threshold 1.0D-07

 ITERATION    DDIFF          GRAD             ENERGY        2-EL.EN.            DIPOLE MOMENTS         DIIS
    1      0.000D+00      0.000D+00      -382.02948878   1251.515142   0.000000   0.000000   0.000000    0
    2      0.000D+00      0.122D-06      -382.02948878   1251.515051   0.000000   0.000000   0.000000    1
    3      0.404D-06      0.161D-06      -382.02948878   1251.515207   0.000000   0.000000   0.000000    0
 
 Final occupancy:  35
 
 !RKS STATE 1.1 ENERGY               -382.029488776239
 Nuclear energy                       452.43145287
 One-electron energy                -1413.64495664
 Two-electron energy                  625.75760342
 SCF exchange energy                  -55.35158860     Factor=0.2000
 Density functional                   -46.57358842     B88=-55.36399425 DIRAC=-49.85170101 LYP= -2.31135562 VWN5= -4.47988647
 Virial quotient                       -1.01580060
 !RKS STATE 1.1 DIPOLE MOMENT           0.00000000     0.00000000     0.00000000
 Dipole moment /Debye                   0.00000000     0.00000000     0.00000000

 ELECTRON ORBITALS
 =================


   Orb  Occ    Energy  Couls-En    Coefficients

                                   1 1s      1 1s      1 2px     1 2py     1 2pz     2 1s      2 1s      2 2px     2 2py     2 2pz  
                                   3 1s      3 1s      3 2px     3 2py     3 2pz     4 1s      4 1s      4 2px     4 2py     4 2pz  
                                   5 1s      5 1s      5 2px     5 2py     5 2pz     6 1s      6 1s      6 2px     6 2py     6 2pz  
                                   7 1s      7 1s      7 2px     7 2py     7 2pz     8 1s      8 1s      8 2px     8 2py     8 2pz  
                                   9 1s      9 1s      9 2px     9 2py     9 2pz    10 1s     10 1s     10 2px    10 2py    10 2pz  
                                  11 1s     12 1s     13 1s     14 1s     15 1s     16 1s     17 1s     18 1s     19 1s     20 1s   


   1.1   2   -10.0114  -42.4570  0.699173  0.032194 -0.000491 -0.000019  0.000000 -0.019103 -0.007821 -0.002746  0.003446  0.000000
                                 0.019671  0.007787 -0.001212 -0.004222  0.000000 -0.699173 -0.032194 -0.000491 -0.000019  0.000000
                                 0.019103  0.007821 -0.002746  0.003446  0.000000 -0.019671 -0.007787 -0.001212 -0.004222  0.000000
                                -0.028134 -0.007346  0.004144  0.001003  0.000000  0.028134  0.007346  0.004144  0.001003  0.000000
                                -0.000390  0.000515 -0.000179  0.000154  0.000000  0.000390 -0.000515 -0.000179  0.000154  0.000000
                                 0.000359 -0.000359  0.000353 -0.000353  0.000350 -0.000350  0.000096 -0.000096  0.000110 -0.000110

   2.1   2   -10.0113  -42.4569 -0.699167 -0.031991  0.000210 -0.000044  0.000000  0.019591  0.006994  0.003117 -0.003233  0.000000
                                 0.019960  0.006948 -0.001643 -0.004139  0.000000 -0.699167 -0.031991 -0.000210  0.000044  0.000000
                                 0.019591  0.006994 -0.003117  0.003233  0.000000  0.019960  0.006948  0.001643  0.004139  0.000000
                                 0.028546  0.007424 -0.004186 -0.001015  0.000000  0.028546  0.007424  0.004186  0.001015  0.000000
                                 0.000374 -0.000520  0.000188 -0.000157  0.000000  0.000374 -0.000520 -0.000188  0.000157  0.000000
                                -0.000245 -0.000245 -0.000234 -0.000234 -0.000360 -0.000360  0.000095  0.000095  0.000097  0.000097

   3.1   2   -10.0007  -40.1365  0.028840 -0.004718 -0.004307 -0.000810  0.000000 -0.006717 -0.000381 -0.000049  0.000105  0.000000
                                 0.005136  0.000288  0.000032 -0.000103  0.000000 -0.028840  0.004718 -0.004307 -0.000810  0.000000
                                 0.006717  0.000381 -0.000049  0.000105  0.000000 -0.005136 -0.000288  0.000032 -0.000103  0.000000
                                 0.699787  0.031341  0.000611 -0.001341  0.000000 -0.699787 -0.031341  0.000611 -0.001341  0.000000
                                -0.007156 -0.007661  0.003188 -0.003433  0.000000  0.007156  0.007661  0.003188 -0.003433  0.000000
                                -0.000038  0.000038  0.000011 -0.000011 -0.006354  0.006354 -0.000119  0.000119 -0.000210  0.000210

   4.1   2   -10.0007  -40.1368  0.029099 -0.004658 -0.004279 -0.000802  0.000000 -0.009426 -0.000458 -0.000080  0.000174  0.000000
                                -0.007672 -0.000340 -0.000020  0.000176  0.000000  0.029099 -0.004658  0.004279  0.000802  0.000000
                                -0.009426 -0.000458  0.000080 -0.000174  0.000000 -0.007672 -0.000340  0.000020 -0.000176  0.000000
                                 0.699723  0.031320  0.000623 -0.001338  0.000000  0.699723  0.031320 -0.000623  0.001338  0.000000
                                -0.007148 -0.007659  0.003186 -0.003433  0.000000 -0.007148 -0.007659 -0.003186  0.003433  0.000000
                                -0.000037 -0.000037  0.000014  0.000014 -0.006352 -0.006352  0.000119  0.000119  0.000210  0.000210

   5.1   2    -9.9984  -41.5774 -0.002353  0.000511  0.000829 -0.005260  0.000000  0.458119  0.025114 -0.003525 -0.001109  0.000000
                                -0.529241 -0.027574 -0.003316 -0.000165  0.000000 -0.002353  0.000511 -0.000829  0.005260  0.000000
                                 0.458119  0.025114  0.003525  0.001109  0.000000 -0.529241 -0.027574  0.003316  0.000165  0.000000
                                 0.000477  0.000001 -0.000034  0.000118  0.000000  0.000477  0.000001  0.000034 -0.000118  0.000000
                                 0.000930  0.000115 -0.000065 -0.000056  0.000000  0.000930  0.000115  0.000065  0.000056  0.000000
                                 0.004921  0.004921 -0.004242 -0.004242  0.000004  0.000004  0.000016  0.000016 -0.000223 -0.000223

   6.1   2    -9.9984  -41.5808 -0.029086  0.008205 -0.003128 -0.001084  0.000000 -0.451020 -0.025031  0.003689  0.001261  0.000000
                                 0.534529  0.027941  0.003461  0.000027  0.000000  0.029086 -0.008205 -0.003128 -0.001084  0.000000
                                 0.451020  0.025031  0.003689  0.001261  0.000000 -0.534529 -0.027941  0.003461  0.000027  0.000000
                                -0.007147 -0.000480 -0.000053  0.000077  0.000000  0.007147  0.000480 -0.000053  0.000077  0.000000
                                 0.001692  0.000307 -0.000186 -0.000017  0.000000 -0.001692 -0.000307 -0.000186 -0.000017  0.000000
                                 0.004981 -0.004981  0.004215 -0.004215  0.000116 -0.000116 -0.000023  0.000023  0.000226 -0.000226

   7.1   2    -9.9978  -41.5542 -0.002099  0.000728 -0.001283  0.005048  0.000000 -0.535527 -0.019445 -0.002426  0.000119  0.000000
                                -0.452198 -0.014949  0.002832  0.001031  0.000000  0.002099 -0.000728 -0.001283  0.005048  0.000000
                                 0.535527  0.019445 -0.002426  0.000119  0.000000  0.452198  0.014949  0.002832  0.001031  0.000000
                                -0.001762 -0.000070 -0.000011 -0.000013  0.000000  0.001762  0.000070 -0.000011 -0.000013  0.000000
                                -0.000971 -0.000066  0.000067  0.000074  0.000000  0.000971  0.000066  0.000067  0.000074  0.000000
                                -0.003964  0.003964  0.004717 -0.004717  0.000027 -0.000027  0.000024 -0.000024 -0.000155  0.000155

   8.1   2    -9.9977  -41.5574  0.029787 -0.007522  0.003079  0.000231  0.000000  0.529474  0.019006  0.002476  0.000230  0.000000
                                 0.458398  0.015218 -0.002885 -0.000756  0.000000  0.029787 -0.007522 -0.003079 -0.000231  0.000000
                                 0.529474  0.019006 -0.002476 -0.000230  0.000000  0.458398  0.015218  0.002885  0.000756  0.000000
                                 0.011022  0.000505  0.000191 -0.000063  0.000000  0.011022  0.000505 -0.000191  0.000063  0.000000
                                -0.002043 -0.000375  0.000239 -0.000010  0.000000 -0.002043 -0.000375 -0.000239  0.000010  0.000000
                                -0.004191 -0.004191 -0.004831 -0.004831 -0.000180 -0.000180 -0.000028 -0.000028  0.000168  0.000168

   9.1   2    -9.9841  -38.2502  0.000784  0.000224  0.000017  0.000085  0.000000  0.000277  0.000002 -0.000138  0.000016  0.000000
                                -0.001910  0.000006 -0.000235 -0.000015  0.000000 -0.000784 -0.000224  0.000017  0.000085  0.000000
                                -0.000277 -0.000002 -0.000138  0.000016  0.000000  0.001910 -0.000006 -0.000235 -0.000015  0.000000
                                 0.008015 -0.007102 -0.003029  0.003515  0.000000 -0.008015  0.007102 -0.003029  0.003515  0.000000
                                 0.700474  0.030958 -0.000879  0.001682  0.000000 -0.700474 -0.030958 -0.000879  0.001682  0.000000
                                 0.000133 -0.000133 -0.000016  0.000016  0.000132 -0.000132  0.006454 -0.006454  0.006198 -0.006198

  10.1   2    -9.9841  -38.2502  0.000793  0.000223  0.000014  0.000082  0.000000  0.000856 -0.000137 -0.000020  0.000048  0.000000
                                 0.002008 -0.000030  0.000215  0.000009  0.000000  0.000793  0.000223 -0.000014 -0.000082  0.000000
                                 0.000856 -0.000137  0.000020 -0.000048  0.000000  0.002008 -0.000030 -0.000215 -0.000009  0.000000
                                 0.008024 -0.007101 -0.003028  0.003514  0.000000  0.008024 -0.007101  0.003028 -0.003514  0.000000
                                 0.700473  0.030957 -0.000878  0.001682  0.000000  0.700473  0.030957  0.000878 -0.001682  0.000000
                                 0.000133  0.000133 -0.000024 -0.000024  0.000131  0.000131 -0.006454 -0.006454 -0.006198 -0.006198

  11.1   2    -0.8077  -18.9317 -0.109800  0.276505 -0.029202 -0.006644  0.000000 -0.093110  0.234574 -0.009575 -0.052070  0.000000
                                -0.093916  0.236868  0.027168 -0.044892  0.000000 -0.109800  0.276505  0.029202  0.006644  0.000000
                                -0.093110  0.234574  0.009575  0.052070  0.000000 -0.093916  0.236868 -0.027168  0.044892  0.000000
                                -0.058944  0.149033 -0.031536 -0.020325  0.000000 -0.058944  0.149033  0.031536  0.020325  0.000000
                                -0.031867  0.079827 -0.023392  0.018116  0.000000 -0.031867  0.079827  0.023392 -0.018116  0.000000
                                 0.044529  0.044529  0.042483  0.042483  0.028747  0.028747  0.014209  0.014209  0.018796  0.018796

  12.1   2    -0.7606  -17.5943 -0.103499  0.268106  0.042264  0.000857  0.000000 -0.034070  0.088597  0.057145 -0.025178  0.000000
                                 0.044317 -0.115431  0.043555  0.043884  0.000000  0.103499 -0.268106  0.042264  0.000857  0.000000
                                 0.034070 -0.088597  0.057145 -0.025178  0.000000 -0.044317  0.115431  0.043555  0.043884  0.000000
                                -0.114959  0.294671 -0.016367 -0.043454  0.000000  0.114959 -0.294671 -0.016367 -0.043454  0.000000
                                -0.080856  0.207129 -0.046502  0.045001  0.000000  0.080856 -0.207129 -0.046502  0.045001  0.000000
                                 0.032180 -0.032180  0.022451 -0.022451  0.063792 -0.063792 -0.044076  0.044076 -0.048596  0.048596

  13.1   2    -0.7181  -16.6944  0.000754 -0.001138  0.107082  0.009301  0.000000  0.056177 -0.146606  0.036768  0.021214  0.000000
                                 0.047915 -0.125076 -0.054110  0.003504  0.000000  0.000754 -0.001138 -0.107082 -0.009301  0.000000
                                 0.056177 -0.146606 -0.036768 -0.021214  0.000000  0.047915 -0.125076  0.054110 -0.003504  0.000000
                                -0.115453  0.300452  0.050801 -0.052763  0.000000 -0.115453  0.300452 -0.050801  0.052763  0.000000
                                -0.112943  0.296096 -0.044435  0.059681  0.000000 -0.112943  0.296096  0.044435 -0.059681  0.000000
                                -0.017870 -0.017870 -0.029236 -0.029236  0.073063  0.073063  0.074662  0.074662  0.070000  0.070000

  14.1   2    -0.6938  -18.0403 -0.020109  0.054165 -0.027097  0.126157  0.000000 -0.134084  0.361401 -0.048870  0.000302  0.000000
                                -0.115543  0.311334  0.064421  0.039851  0.000000  0.020109 -0.054165 -0.027097  0.126157  0.000000
                                 0.134084 -0.361401 -0.048870  0.000302  0.000000  0.115543 -0.311334  0.064421  0.039851  0.000000
                                -0.003221  0.010018 -0.023444  0.026309  0.000000  0.003221 -0.010018 -0.023444  0.026309  0.000000
                                 0.016978 -0.044415  0.007180  0.002591  0.000000 -0.016978  0.044415  0.007180  0.002591  0.000000
                                -0.089245  0.089245  0.100311 -0.100311  0.011511 -0.011511  0.010458 -0.010458  0.019617 -0.019617

  15.1   2    -0.6595  -17.0716  0.099914 -0.273815  0.054184  0.022692  0.000000  0.035303 -0.097391 -0.096296  0.036611  0.000000
                                -0.078352  0.216341 -0.040475 -0.054058  0.000000 -0.099914  0.273815  0.054184  0.022692  0.000000
                                -0.035303  0.097391 -0.096296  0.036611  0.000000  0.078352 -0.216341 -0.040475 -0.054058  0.000000
                                -0.050138  0.132341  0.131157 -0.041545  0.000000  0.050138 -0.132341  0.131157 -0.041545  0.000000
                                -0.108542  0.295365 -0.006549  0.047768  0.000000  0.108542 -0.295365 -0.006549  0.047768  0.000000
                                -0.056209  0.056209 -0.027341  0.027341  0.041509 -0.041509 -0.095194  0.095194 -0.073365  0.073365

  16.1   2    -0.5867  -16.5941  0.069876 -0.200256 -0.068583 -0.130761  0.000000  0.006993 -0.020691 -0.157758  0.025628  0.000000
                                -0.084514  0.240597  0.009153  0.064522  0.000000  0.069876 -0.200256  0.068583  0.130761  0.000000
                                 0.006993 -0.020691  0.157758 -0.025628  0.000000 -0.084514  0.240597 -0.009153 -0.064522  0.000000
                                 0.052698 -0.157041  0.126929 -0.084186  0.000000  0.052698 -0.157041 -0.126929  0.084186  0.000000
                                -0.081756  0.235329  0.028014 -0.033543  0.000000 -0.081756  0.235329 -0.028014  0.033543  0.000000
                                 0.116269  0.116269 -0.021196 -0.021196 -0.075376 -0.075376  0.088953  0.088953  0.108258  0.108258

  17.1   2    -0.5548  -17.1141  0.057858 -0.168809 -0.075347  0.174979  0.000000 -0.108298  0.318386  0.022982  0.081420  0.000000
                                 0.051356 -0.152128  0.166253  0.093638  0.000000  0.057858 -0.168809  0.075347 -0.174979  0.000000
                                -0.108298  0.318386 -0.022982 -0.081420  0.000000  0.051356 -0.152128 -0.166253 -0.093638  0.000000
                                 0.002524 -0.008265  0.099358  0.051505  0.000000  0.002524 -0.008265 -0.099358 -0.051505  0.000000
                                -0.042548  0.127055  0.059198  0.030503  0.000000 -0.042548  0.127055 -0.059198 -0.030503  0.000000
                                -0.075412 -0.075412  0.164018  0.164018  0.043910  0.043910  0.081484  0.081484  0.016898  0.016898

  18.1   2    -0.5269  -15.2118  0.008329 -0.023432  0.132672  0.058419  0.000000  0.054367 -0.165380  0.003340  0.000155  0.000000
                                -0.027857  0.084318 -0.089235 -0.032243  0.000000 -0.008329  0.023432  0.132672  0.058419  0.000000
                                -0.054367  0.165380  0.003340  0.000155  0.000000  0.027857 -0.084318 -0.089235 -0.032243  0.000000
                                -0.097276  0.297248 -0.038815  0.124142  0.000000  0.097276 -0.297248 -0.038815  0.124142  0.000000
                                 0.081223 -0.250193 -0.057779  0.128760  0.000000 -0.081223  0.250193 -0.057779  0.128760  0.000000
                                -0.067358  0.067358 -0.056391  0.056391  0.173221 -0.173221  0.098034 -0.098034  0.174753 -0.174753

  19.1   2    -0.5004  -16.2632  0.049027 -0.145095  0.157356 -0.014217  0.000000 -0.004382  0.018442 -0.085121  0.187638  0.000000
                                -0.051769  0.165506 -0.054332  0.202109  0.000000  0.049027 -0.145095 -0.157356  0.014217  0.000000
                                -0.004382  0.018442  0.085121 -0.187638  0.000000 -0.051769  0.165506  0.054332 -0.202109  0.000000
                                -0.057008  0.174581 -0.014664  0.068861  0.000000 -0.057008  0.174581  0.014664 -0.068861  0.000000
                                 0.056016 -0.176931 -0.071531  0.064827  0.000000  0.056016 -0.176931  0.071531 -0.064827  0.000000
                                 0.175152  0.175152  0.102895  0.102895  0.111781  0.111781 -0.094291 -0.094291 -0.088708 -0.088708

  20.1   2    -0.4631  -15.3811  0.026510 -0.083780 -0.112092 -0.074844  0.000000  0.021622 -0.076139 -0.131675 -0.124037  0.000000
                                -0.029868  0.088922  0.103430 -0.074365  0.000000  0.026510 -0.083780  0.112092  0.074844  0.000000
                                 0.021622 -0.076139  0.131675  0.124037  0.000000 -0.029868  0.088922 -0.103430  0.074365  0.000000
                                -0.040368  0.129245  0.177098  0.114278  0.000000 -0.040368  0.129245 -0.177098 -0.114278  0.000000
                                 0.024564 -0.086579  0.048551  0.219284  0.000000  0.024564 -0.086579 -0.048551 -0.219284  0.000000
                                -0.066277 -0.066277 -0.131785 -0.131785  0.160488  0.160488  0.051644  0.051644 -0.197740 -0.197740

  21.1   2    -0.4416  -15.7978 -0.017351  0.056253  0.179878 -0.090840  0.000000  0.028984 -0.094955 -0.170534 -0.009968  0.000000
                                -0.050587  0.164043  0.077813  0.070501  0.000000  0.017351 -0.056253  0.179878 -0.090840  0.000000
                                -0.028984  0.094955 -0.170534 -0.009968  0.000000  0.050587 -0.164043  0.077813  0.070501  0.000000
                                -0.020009  0.061321 -0.149926 -0.197834  0.000000  0.020009 -0.061321 -0.149926 -0.197834  0.000000
                                 0.008771 -0.031309 -0.203575 -0.104709  0.000000 -0.008771  0.031309 -0.203575 -0.104709  0.000000
                                -0.060957  0.060957 -0.092164  0.092164 -0.144187  0.144187  0.180568 -0.180568 -0.081092  0.081092

  22.1   2    -0.4055  -15.7147  0.065845 -0.222503  0.115409  0.090660  0.000000 -0.029138  0.102024  0.028380  0.152936  0.000000
                                 0.020535 -0.074986  0.093373 -0.249105  0.000000 -0.065845  0.222503  0.115409  0.090660  0.000000
                                 0.029138 -0.102024  0.028380  0.152936  0.000000 -0.020535  0.074986  0.093373 -0.249105  0.000000
                                -0.017679  0.060412 -0.037053  0.067936  0.000000  0.017679 -0.060412 -0.037053  0.067936  0.000000
                                 0.013588 -0.042577 -0.102122 -0.129609  0.000000 -0.013588  0.042577 -0.102122 -0.129609  0.000000
                                 0.256414 -0.256414  0.173402 -0.173402  0.080972 -0.080972  0.128618 -0.128618 -0.130205  0.130205

  23.1   2    -0.4002  -16.4154  0.032487 -0.108202 -0.027549 -0.241719  0.000000 -0.029907  0.103134 -0.141145  0.184849  0.000000
                                 0.037520 -0.127829  0.163703  0.103138  0.000000 -0.032487  0.108202 -0.027549 -0.241719  0.000000
                                 0.029907 -0.103134 -0.141145  0.184849  0.000000 -0.037520  0.127829  0.163703  0.103138  0.000000
                                -0.011380  0.028220  0.173823 -0.090667  0.000000  0.011380 -0.028220  0.173823 -0.090667  0.000000
                                 0.016450 -0.069412 -0.071712  0.217388  0.000000 -0.016450  0.069412 -0.071712  0.217388  0.000000
                                 0.061778 -0.061778  0.155677 -0.155677 -0.003450  0.003450  0.020089 -0.020089  0.179937 -0.179937

  24.1   2    -0.3787  -15.0445 -0.020839  0.069448 -0.020578  0.045109  0.000000  0.026864 -0.092491  0.097681 -0.028544  0.000000
                                -0.017545  0.066637 -0.144660  0.042149  0.000000 -0.020839  0.069448  0.020578 -0.045109  0.000000
                                 0.026864 -0.092491 -0.097681  0.028544  0.000000 -0.017545  0.066637  0.144660 -0.042149  0.000000
                                 0.028988 -0.085095 -0.070206  0.299017  0.000000  0.028988 -0.085095  0.070206 -0.299017  0.000000
                                 0.006005 -0.003199  0.289238 -0.121482  0.000000  0.006005 -0.003199 -0.289238  0.121482  0.000000
                                 0.140914  0.140914 -0.035206 -0.035206  0.180218  0.180218  0.196396  0.196396  0.077560  0.077560

  25.1   2    -0.3668  -16.6469 -0.002627  0.009564 -0.087507  0.051187  0.000000 -0.029616  0.094394 -0.160618 -0.303165  0.000000
                                -0.018639  0.058896  0.249104 -0.155921  0.000000  0.002627 -0.009564 -0.087507  0.051187  0.000000
                                 0.029616 -0.094394 -0.160618 -0.303165  0.000000  0.018639 -0.058896  0.249104 -0.155921  0.000000
                                -0.003793  0.010804  0.081747  0.009955  0.000000  0.003793 -0.010804  0.081747  0.009955  0.000000
                                 0.010256 -0.040082 -0.008659  0.087554  0.000000 -0.010256  0.040082 -0.008659  0.087554  0.000000
                                 0.213581 -0.213581 -0.251801  0.251801  0.024317 -0.024317 -0.003464  0.003464  0.060194 -0.060194

  26.1   2    -0.3527  -14.3736 -0.032909  0.116904  0.036994 -0.068788  0.000000  0.001866  0.001718  0.133818  0.132419  0.000000
                                -0.000167  0.003780 -0.162826 -0.033819  0.000000 -0.032909  0.116904 -0.036994  0.068788  0.000000
                                 0.001866  0.001718 -0.133818 -0.132419  0.000000 -0.000167  0.003780  0.162826  0.033819  0.000000
                                 0.028749 -0.111318  0.005474 -0.151369  0.000000  0.028749 -0.111318 -0.005474  0.151369  0.000000
                                -0.004232  0.010466  0.163289  0.254939  0.000000 -0.004232  0.010466 -0.163289 -0.254939  0.000000
                                 0.026990  0.026990  0.140871  0.140871 -0.182389 -0.182389  0.223450  0.223450 -0.252715 -0.252715

  27.1   2    -0.3371  -16.1042 -0.007874  0.027150  0.043987 -0.198415  0.000000  0.015921 -0.059310 -0.215710  0.045814  0.000000
                                -0.000862  0.001695  0.153488  0.170118  0.000000  0.007874 -0.027150  0.043987 -0.198415  0.000000
                                -0.015921  0.059310 -0.215710  0.045814  0.000000  0.000862 -0.001695  0.153488  0.170118  0.000000
                                 0.004611  0.000114 -0.075492  0.280864  0.000000 -0.004611 -0.000114 -0.075492  0.280864  0.000000
                                 0.017904 -0.048928  0.168396 -0.195971  0.000000 -0.017904  0.048928  0.168396 -0.195971  0.000000
                                -0.017718  0.017718 -0.039807  0.039807  0.235668 -0.235668 -0.066825  0.066825 -0.136038  0.136038

  28.1   2    -0.3225  -17.3084  0.000000  0.000000  0.000000  0.000000  0.338921  0.000000  0.000000  0.000000  0.000000  0.286854
                                 0.000000  0.000000  0.000000  0.000000  0.286938  0.000000  0.000000  0.000000  0.000000  0.338921
                                 0.000000  0.000000  0.000000  0.000000  0.286854  0.000000  0.000000  0.000000  0.000000  0.286938
                                 0.000000  0.000000  0.000000  0.000000  0.191998  0.000000  0.000000  0.000000  0.000000  0.191998
                                 0.000000  0.000000  0.000000  0.000000  0.105189  0.000000  0.000000  0.000000  0.000000  0.105189
                                 0.000000  0.000000  0.000000  0.000000  0.000000  0.000000  0.000000  0.000000  0.000000  0.000000

  29.1   2    -0.3089  -15.2607 -0.011205  0.043982  0.287863  0.037671  0.000000  0.012327 -0.042042 -0.057491  0.086430  0.000000
                                -0.012163  0.039297  0.085004 -0.117104  0.000000  0.011205 -0.043982  0.287863  0.037671  0.000000
                                -0.012327  0.042042 -0.057491  0.086430  0.000000  0.012163 -0.039297  0.085004 -0.117104  0.000000
                                 0.006503 -0.025566 -0.253088 -0.067990  0.000000 -0.006503  0.025566 -0.253088 -0.067990  0.000000
                                 0.006785 -0.015162  0.261350  0.096182  0.000000 -0.006785  0.015162  0.261350  0.096182  0.000000
                                 0.085743 -0.085743  0.031529 -0.031529 -0.164485  0.164485 -0.273042  0.273042  0.161285 -0.161285

  30.1   2    -0.2852  -16.5358  0.006085 -0.030138 -0.225032 -0.183066  0.000000  0.004654 -0.009558  0.207626  0.123196  0.000000
                                 0.003379 -0.013623 -0.212972 -0.199635  0.000000  0.006085 -0.030138  0.225032  0.183066  0.000000
                                 0.004654 -0.009558 -0.207626 -0.123196  0.000000  0.003379 -0.013623  0.212972  0.199635  0.000000
                                 0.015980 -0.059317  0.256438  0.076147  0.000000  0.015980 -0.059317 -0.256438 -0.076147  0.000000
                                -0.000084 -0.007426 -0.141753 -0.026102  0.000000 -0.000084 -0.007426  0.141753  0.026102  0.000000
                                 0.003080  0.003080  0.216847  0.216847  0.156810  0.156810 -0.150992 -0.150992  0.082519  0.082519

  31.1   2    -0.2831  -16.7792 -0.000894  0.006077  0.172483 -0.266373  0.000000  0.011244 -0.034852 -0.199797  0.227249  0.000000
                                -0.013065  0.038275  0.133837 -0.219178  0.000000 -0.000894  0.006077 -0.172483  0.266373  0.000000
                                 0.011244 -0.034852  0.199797 -0.227249  0.000000 -0.013065  0.038275 -0.133837  0.219178  0.000000
                                -0.005155  0.028187 -0.146157  0.078938  0.000000 -0.005155  0.028187  0.146157 -0.078938  0.000000
                                 0.006489 -0.014297  0.120194 -0.119131  0.000000  0.006489 -0.014297 -0.120194  0.119131  0.000000
                                -0.274311 -0.274311  0.161091  0.161091  0.065882  0.065882  0.070917  0.070917  0.039676  0.039676

  32.1   2    -0.2665  -16.3523  0.000000  0.000000  0.000000  0.000000  0.350040  0.000000  0.000000  0.000000  0.000000  0.125771
                                 0.000000  0.000000  0.000000  0.000000 -0.132902  0.000000  0.000000  0.000000  0.000000 -0.350040
                                 0.000000  0.000000  0.000000  0.000000 -0.125771  0.000000  0.000000  0.000000  0.000000  0.132902
                                 0.000000  0.000000  0.000000  0.000000  0.375583  0.000000  0.000000  0.000000  0.000000 -0.375583
                                 0.000000  0.000000  0.000000  0.000000  0.264562  0.000000  0.000000  0.000000  0.000000 -0.264562
                                 0.000000  0.000000  0.000000  0.000000  0.000000  0.000000  0.000000  0.000000  0.000000  0.000000

  33.1   2    -0.2070  -15.3421  0.000000  0.000000  0.000000  0.000000 -0.025369  0.000000  0.000000  0.000000  0.000000 -0.200235
                                 0.000000  0.000000  0.000000  0.000000 -0.193640  0.000000  0.000000  0.000000  0.000000 -0.025369
                                 0.000000  0.000000  0.000000  0.000000 -0.200235  0.000000  0.000000  0.000000  0.000000 -0.193640
                                 0.000000  0.000000  0.000000  0.000000  0.405800  0.000000  0.000000  0.000000  0.000000  0.405800
                                 0.000000  0.000000  0.000000  0.000000  0.409788  0.000000  0.000000  0.000000  0.000000  0.409788
                                 0.000000  0.000000  0.000000  0.000000  0.000000  0.000000  0.000000  0.000000  0.000000  0.000000

  34.1   2    -0.1879  -17.1316  0.000000  0.000000  0.000000  0.000000  0.015534  0.000000  0.000000  0.000000  0.000000  0.467698
                                 0.000000  0.000000  0.000000  0.000000  0.453521  0.000000  0.000000  0.000000  0.000000 -0.015534
                                 0.000000  0.000000  0.000000  0.000000 -0.467698  0.000000  0.000000  0.000000  0.000000 -0.453521
                                 0.000000  0.000000  0.000000  0.000000  0.000702  0.000000  0.000000  0.000000  0.000000 -0.000702
                                 0.000000  0.000000  0.000000  0.000000 -0.015833  0.000000  0.000000  0.000000  0.000000  0.015833
                                 0.000000  0.000000  0.000000  0.000000  0.000000  0.000000  0.000000  0.000000  0.000000  0.000000

  35.1   2    -0.1425  -16.1040  0.000000  0.000000  0.000000  0.000000 -0.383124  0.000000  0.000000  0.000000  0.000000 -0.207574
                                 0.000000  0.000000  0.000000  0.000000  0.241040  0.000000  0.000000  0.000000  0.000000  0.383124
                                 0.000000  0.000000  0.000000  0.000000  0.207574  0.000000  0.000000  0.000000  0.000000 -0.241040
                                 0.000000  0.000000  0.000000  0.000000  0.222000  0.000000  0.000000  0.000000  0.000000 -0.222000
                                 0.000000  0.000000  0.000000  0.000000  0.406212  0.000000  0.000000  0.000000  0.000000 -0.406212
                                 0.000000  0.000000  0.000000  0.000000  0.000000  0.000000  0.000000  0.000000  0.000000  0.000000


 **********************************************************************************************************************************
 DATASETS  * FILE   NREC   LENGTH (MB)   RECORD NAMES
              1      20        8.97       500      700      610      900      950      970     1000     1100     1400     1410   
                                          VAR     GEOM    BASINP   SYMINP    ZMAT    AOBASIS   BASIS      S        T        V 
                                         1200     1210     1080     1600      129      960     1650     1300     1700     1800   
                                          H0       H01     AOSYM     SMH      P2S    ABASIS   MOLCAS    ERIS     OPER     GRID   
 
              2       7        2.08       500      610      700     1000     1800     1801     2100   
                                          VAR    BASINP    GEOM     BASIS    GRID     GRID      RKS  
 
 PROGRAMS   *        TOTAL        KS       INT   RESTART
 CPU TIMES  *        26.91     21.75      4.61      0.04
 REAL TIME  *        28.25 SEC
 DISK USED  *        22.23 MB      
 **********************************************************************************************************************************


 PROGRAM * OPT (Geometry optimization)     Authors: F. Eckert and H.-J. Werner


 *** Long output written to logfile ./dvb_gopt.log ***


 Geometry optimization using default procedure for command KS-SCF

 Geometry written to block  1 of record 701
 
 SLAPAF optimizer by R. Lindh entered


 Nuclear coordinates for the next iteration / Bohr, Angstrom

     ATOM                     X                   Y                   Z                          X                   Y                   Z

     C              2.6621976177        0.5045296181        0.0000000000               1.4087743099        0.2669855761        0.0000000000
     C              0.8645582208        2.5002994391        0.0000000000               0.4575045078        1.3231014834        0.0000000000
     C             -1.7424791667        2.0140778121        0.0000000000              -0.9220802653        1.0658040789        0.0000000000
     C             -2.6621875943       -0.5044974459        0.0000000000              -1.4087690058       -0.2669685513        0.0000000000
     C             -0.8645512268       -2.5002671722        0.0000000000              -0.4575008068       -1.3230844084        0.0000000000
     C              1.7424741878       -2.0140359612        0.0000000000               0.9220776306       -1.0657819324        0.0000000000
     C              5.4041195077        1.0559191248        0.0000000000               2.8597368879        0.5587683373        0.0000000000
     C             -5.4041056094       -1.0559233026        0.0000000000              -2.8597295333       -0.5587705481        0.0000000000
     C              7.2058275589       -0.7402245553        0.0000000000               3.8131597291       -0.3917099655        0.0000000000
     C             -7.2058446404        0.7401863608        0.0000000000              -3.8131687683        0.3916897539        0.0000000000
     H              3.0654238189       -3.6067952171        0.0000000000               1.6221524264       -1.9086338329        0.0000000000
     H             -3.0654381760        3.6068301218        0.0000000000              -1.6221600238        1.9086523037        0.0000000000
     H              1.5277440331        4.4676812434        0.0000000000               0.8084473262        2.3641950991        0.0000000000
     H             -1.5277095523       -4.4676601861        0.0000000000              -0.8084290798       -2.3641839561        0.0000000000
     H              5.9712712849        3.0523565293        0.0000000000               3.1598606835        1.6152375146        0.0000000000
     H             -5.9712229805       -3.0523698476        0.0000000000              -3.1598351219       -1.6152445623        0.0000000000
     H             -9.1449140214        0.0316856881        0.0000000000              -4.8392800948        0.0167673440        0.0000000000
     H              9.1449166395       -0.0317622737        0.0000000000               4.8392814803       -0.0168078714        0.0000000000
     H             -6.8507679468        2.7709583179        0.0000000000              -3.6252702739        1.4663279939        0.0000000000
     H              6.8506880453       -2.7709882938        0.0000000000               3.6252279919       -1.4663438565        0.0000000000

 Optimization point 1

 Variable                      Last           Current        Next           Gradient       Hessian

 E(KS-SCF000) / Hartree      0.00000000  -382.02948878  -382.04141385
 CX1 / BOHR                  0.00000000     2.65110708     2.66219762     0.02998407     1.00000000
 CY1 / BOHR                  0.00000000     0.52354624     0.50452962    -0.00417622     1.00000000
 CZ1 / BOHR                  0.00000000     0.00000000     0.00000000     0.00000000     1.00000000
 CX2 / BOHR                  0.00000000     0.85568205     0.86455822     0.01338894     1.00000000
 CY2 / BOHR                  0.00000000     2.50940697     2.50029944    -0.00241175     1.00000000
 CZ2 / BOHR                  0.00000000     0.00000000     0.00000000     0.00000000     1.00000000
 CX3 / BOHR                  0.00000000    -1.75283332    -1.74247917    -0.01135355     1.00000000
 CY3 / BOHR                  0.00000000     2.00428079     2.01407781    -0.00151150     1.00000000
 CZ3 / BOHR                  0.00000000     0.00000000     0.00000000     0.00000000     1.00000000
 CX4 / BOHR                  0.00000000    -2.65110708    -2.66218759    -0.02998407     1.00000000
 CY4 / BOHR                  0.00000000    -0.52354624    -0.50449745     0.00417622     1.00000000
 CZ4 / BOHR                  0.00000000     0.00000000     0.00000000     0.00000000     1.00000000
 CX5 / BOHR                  0.00000000    -0.85568205    -0.86455123    -0.01338894     1.00000000
 CY5 / BOHR                  0.00000000    -2.50940697    -2.50026717     0.00241175     1.00000000
 CZ5 / BOHR                  0.00000000     0.00000000     0.00000000     0.00000000     1.00000000
 CX6 / BOHR                  0.00000000     1.75283332     1.74247419     0.01135355     1.00000000
 CY6 / BOHR                  0.00000000    -2.00428079    -2.01403596     0.00151150     1.00000000
 CZ6 / BOHR                  0.00000000     0.00000000     0.00000000     0.00000000     1.00000000
 CX7 / BOHR                  0.00000000     5.33016435     5.40411951    -0.01169367     1.00000000
 CY7 / BOHR                  0.00000000     1.09871130     1.05591912     0.01640674     1.00000000
 CZ7 / BOHR                  0.00000000     0.00000000     0.00000000     0.00000000     1.00000000
 CX8 / BOHR                  0.00000000    -5.33016435    -5.40410561     0.01169367     1.00000000
 CY8 / BOHR                  0.00000000    -1.09871130    -1.05592330    -0.01640674     1.00000000
 CZ8 / BOHR                  0.00000000     0.00000000     0.00000000     0.00000000     1.00000000
 HX9 / BOHR                  0.00000000     3.09742746     3.06542382     0.00259208     1.00000000
 HY9 / BOHR                  0.00000000    -3.58210129    -3.60679522    -0.00001888     1.00000000
 HZ9 / BOHR                  0.00000000     0.00000000     0.00000000     0.00000000     1.00000000
 HX10 / BOHR                 0.00000000    -3.09742746    -3.06543818    -0.00259208     1.00000000
 HY10 / BOHR                 0.00000000     3.58210129     3.60683012     0.00001888     1.00000000
 HZ10 / BOHR                 0.00000000     0.00000000     0.00000000     0.00000000     1.00000000
 HX11 / BOHR                 0.00000000     1.49325871     1.52774403    -0.00204265     1.00000000
 HY11 / BOHR                 0.00000000     4.48537093     4.46768124     0.00072352     1.00000000
 HZ11 / BOHR                 0.00000000     0.00000000     0.00000000     0.00000000     1.00000000
 HX12 / BOHR                 0.00000000    -1.49325871    -1.52770955     0.00204265     1.00000000
 HY12 / BOHR                 0.00000000    -4.48537093    -4.46766019    -0.00072352     1.00000000
 HZ12 / BOHR                 0.00000000     0.00000000     0.00000000     0.00000000     1.00000000
 CX13 / BOHR                 0.00000000     7.03130853     7.20582756    -0.02330897     1.00000000
 CY13 / BOHR                 0.00000000    -0.78286848    -0.74022456    -0.03180665     1.00000000
 CZ13 / BOHR                 0.00000000     0.00000000     0.00000000     0.00000000     1.00000000
 CX14 / BOHR                 0.00000000    -7.03130853    -7.20584464     0.02330897     1.00000000
 CY14 / BOHR                 0.00000000     0.78286848     0.74018636     0.03180665     1.00000000
 CZ14 / BOHR                 0.00000000     0.00000000     0.00000000     0.00000000     1.00000000
 HX15 / BOHR                 0.00000000     5.96848379     5.97127128     0.00363468     1.00000000
 HY15 / BOHR                 0.00000000     3.07697724     3.05235653     0.00109506     1.00000000
 HZ15 / BOHR                 0.00000000     0.00000000     0.00000000     0.00000000     1.00000000
 HX16 / BOHR                 0.00000000    -5.96848379    -5.97122298    -0.00363468     1.00000000
 HY16 / BOHR                 0.00000000    -3.07697724    -3.05236985    -0.00109506     1.00000000
 HZ16 / BOHR                 0.00000000     0.00000000     0.00000000     0.00000000     1.00000000
 HX17 / BOHR                 0.00000000    -8.94381450    -9.14491402     0.01100127     1.00000000
 HY17 / BOHR                 0.00000000    -0.01502780     0.03168569    -0.02330713     1.00000000
 HZ17 / BOHR                 0.00000000     0.00000000     0.00000000     0.00000000     1.00000000
 HX18 / BOHR                 0.00000000     8.94381450     9.14491664    -0.01100127     1.00000000
 HY18 / BOHR                 0.00000000     0.01502780    -0.03176227     0.02330713     1.00000000
 HZ18 / BOHR                 0.00000000     0.00000000     0.00000000     0.00000000     1.00000000
 HX19 / BOHR                 0.00000000    -6.60486639    -6.85076795     0.00674406     1.00000000
 HY19 / BOHR                 0.00000000     2.80943798     2.77095832     0.00404499     1.00000000
 HZ19 / BOHR                 0.00000000     0.00000000     0.00000000     0.00000000     1.00000000
 HX20 / BOHR                 0.00000000     6.60486639     6.85068805    -0.00674406     1.00000000
 HY20 / BOHR                 0.00000000    -2.80943798    -2.77098829    -0.00404499     1.00000000
 HZ20 / BOHR                 0.00000000     0.00000000     0.00000000     0.00000000     1.00000000
 Convergence:                0.00000000  (line search)     0.54540492     0.08883206  (total)

 Optimization point 2

 Variable                      Last           Current        Next           Gradient       Hessian

 E(KS-SCF000) / Hartree   -382.02948878  -382.04599024  -382.04974461
 CX1 / BOHR                  2.65110708     2.66219762     2.67026815     0.00938769     1.00000000
 CY1 / BOHR                  0.52354624     0.50452962     0.47785897    -0.00151818     1.00000000
 CZ1 / BOHR                  0.00000000     0.00000000     0.00000000     0.00000000     1.00000000
 CX2 / BOHR                  0.85568205     0.86455822     0.89222718     0.00220527     1.00000000
 CY2 / BOHR                  2.50940697     2.50029944     2.49398027    -0.00166368     1.00000000
 CZ2 / BOHR                  0.00000000     0.00000000     0.00000000     0.00000000     1.00000000
 CX3 / BOHR                 -1.75283332    -1.74247917    -1.71692352    -0.00775767     1.00000000
 CY3 / BOHR                  2.00428079     2.01407781     2.03169379    -0.00074737     1.00000000
 CZ3 / BOHR                  0.00000000     0.00000000     0.00000000     0.00000000     1.00000000
 CX4 / BOHR                 -2.65110708    -2.66218759    -2.67025836    -0.00938369     1.00000000
 CY4 / BOHR                 -0.52354624    -0.50449745    -0.47782796     0.00151775     1.00000000
 CZ4 / BOHR                  0.00000000     0.00000000     0.00000000     0.00000000     1.00000000
 CX5 / BOHR                 -0.85568205    -0.86455123    -0.89222002    -0.00220426     1.00000000
 CY5 / BOHR                 -2.50940697    -2.50026717    -2.49394763     0.00166369     1.00000000
 CZ5 / BOHR                  0.00000000     0.00000000     0.00000000     0.00000000     1.00000000
 CX6 / BOHR                  1.75283332     1.74247419     1.71692557     0.00775293     1.00000000
 CY6 / BOHR                 -2.00428079    -2.01403596    -2.03165826     0.00075074     1.00000000
 CZ6 / BOHR                  0.00000000     0.00000000     0.00000000     0.00000000     1.00000000
 CX7 / BOHR                  5.33016435     5.40411951     5.44352661    -0.00321869     1.00000000
 CY7 / BOHR                  1.09871130     1.05591912     1.03172447     0.01093882     1.00000000
 CZ7 / BOHR                  0.00000000     0.00000000     0.00000000     0.00000000     1.00000000
 CX8 / BOHR                 -5.33016435    -5.40410561    -5.44351326     0.00321674     1.00000000
 CY8 / BOHR                 -1.09871130    -1.05592330    -1.03172510    -0.01093990     1.00000000
 CZ8 / BOHR                  0.00000000     0.00000000     0.00000000     0.00000000     1.00000000
 HX9 / BOHR                  3.09742746     3.06542382     3.02729987    -0.00040560     1.00000000
 HY9 / BOHR                 -3.58210129    -3.60679522    -3.63790871     0.00047233     1.00000000
 HZ9 / BOHR                  0.00000000     0.00000000     0.00000000     0.00000000     1.00000000
 HX10 / BOHR                -3.09742746    -3.06543818    -3.02731024     0.00040516     1.00000000
 HY10 / BOHR                 3.58210129     3.60683012     3.63793269    -0.00047241     1.00000000
 HZ10 / BOHR                 0.00000000     0.00000000     0.00000000     0.00000000     1.00000000
 HX11 / BOHR                 1.49325871     1.52774403     1.58750062    -0.00106277     1.00000000
 HY11 / BOHR                 4.48537093     4.46768124     4.45084283     0.00013855     1.00000000
 HZ11 / BOHR                 0.00000000     0.00000000     0.00000000     0.00000000     1.00000000
 HX12 / BOHR                -1.49325871    -1.52770955    -1.58747776     0.00106416     1.00000000
 HY12 / BOHR                -4.48537093    -4.46766019    -4.45081718    -0.00014008     1.00000000
 HZ12 / BOHR                 0.00000000     0.00000000     0.00000000     0.00000000     1.00000000
 CX13 / BOHR                 7.03130853     7.20582756     7.31406739    -0.00562200     1.00000000
 CY13 / BOHR                -0.78286848    -0.74022456    -0.68838713    -0.02153078     1.00000000
 CZ13 / BOHR                 0.00000000     0.00000000     0.00000000     0.00000000     1.00000000
 CX14 / BOHR                -7.03130853    -7.20584464    -7.31408470     0.00562202     1.00000000
 CY14 / BOHR                 0.78286848     0.74018636     0.68835203     0.02153015     1.00000000
 CZ14 / BOHR                 0.00000000     0.00000000     0.00000000     0.00000000     1.00000000
 HX15 / BOHR                 5.96848379     5.97127128     5.94463339     0.00157604     1.00000000
 HY15 / BOHR                 3.07697724     3.05235653     3.04925097    -0.00127430     1.00000000
 HZ15 / BOHR                 0.00000000     0.00000000     0.00000000     0.00000000     1.00000000
 HX16 / BOHR                -5.96848379    -5.97122298    -5.94458390    -0.00157581     1.00000000
 HY16 / BOHR                -3.07697724    -3.05236985    -3.04926169     0.00127444     1.00000000
 HZ16 / BOHR                 0.00000000     0.00000000     0.00000000     0.00000000     1.00000000
 HX17 / BOHR                -8.94381450    -9.14491402    -9.28536147     0.00769927     1.00000000
 HY17 / BOHR                -0.01502780     0.03168569     0.05997439    -0.01019963     1.00000000
 HZ17 / BOHR                 0.00000000     0.00000000     0.00000000     0.00000000     1.00000000
 HX18 / BOHR                 8.94381450     9.14491664     9.28535901    -0.00769682     1.00000000
 HY18 / BOHR                 0.01502780    -0.03176227    -0.06005151     0.01020086     1.00000000
 HZ18 / BOHR                 0.00000000     0.00000000     0.00000000     0.00000000     1.00000000
 HX19 / BOHR                -6.60486639    -6.85076795    -6.99516276     0.00139639     1.00000000
 HY19 / BOHR                 2.80943798     2.77095832     2.73195201    -0.00196994     1.00000000
 HZ19 / BOHR                 0.00000000     0.00000000     0.00000000     0.00000000     1.00000000
 HX20 / BOHR                 6.60486639     6.85068805     6.99508824    -0.00139836     1.00000000
 HY20 / BOHR                -2.80943798    -2.77098829    -2.73197724     0.00196893     1.00000000
 HZ20 / BOHR                 0.00000000     0.00000000     0.00000000     0.00000000     1.00000000
 Convergence:                0.00000000  (line search)     0.37142858     0.04378819  (total)

 Optimization point 3

 Variable                      Last           Current        Next           Gradient       Hessian

 E(KS-SCF000) / Hartree   -382.04599024  -382.05044587  -382.05070716
 CX1 / BOHR                  2.66219762     2.67026815     2.67340251     0.00010196     1.00000000
 CY1 / BOHR                  0.50452962     0.47785897     0.46167244     0.00091679     1.00000000
 CZ1 / BOHR                  0.00000000     0.00000000     0.00000000     0.00000000     1.00000000
 CX2 / BOHR                  0.86455822     0.89222718     0.90953289    -0.00138444     1.00000000
 CY2 / BOHR                  2.50029944     2.49398027     2.49002041    -0.00065446     1.00000000
 CZ2 / BOHR                  0.00000000     0.00000000     0.00000000     0.00000000     1.00000000
 CX3 / BOHR                 -1.74247917    -1.71692352    -1.70243686    -0.00243597     1.00000000
 CY3 / BOHR                  2.01407781     2.03169379     2.04258533    -0.00044302     1.00000000
 CZ3 / BOHR                  0.00000000     0.00000000     0.00000000     0.00000000     1.00000000
 CX4 / BOHR                 -2.66218759    -2.67025836    -2.67339622    -0.00009941     1.00000000
 CY4 / BOHR                 -0.50449745    -0.47782796    -0.46165250    -0.00091653     1.00000000
 CZ4 / BOHR                  0.00000000     0.00000000     0.00000000     0.00000000     1.00000000
 CX5 / BOHR                 -0.86455123    -0.89222002    -0.90952800     0.00138410     1.00000000
 CY5 / BOHR                 -2.50026717    -2.49394763    -2.48999856     0.00065520     1.00000000
 CZ5 / BOHR                  0.00000000     0.00000000     0.00000000     0.00000000     1.00000000
 CX6 / BOHR                  1.74247419     1.71692557     1.70244148     0.00243425     1.00000000
 CY6 / BOHR                 -2.01403596    -2.03165826    -2.04256392     0.00044507     1.00000000
 CZ6 / BOHR                  0.00000000     0.00000000     0.00000000     0.00000000     1.00000000
 CX7 / BOHR                  5.40411951     5.44352661     5.44863449     0.00091897     1.00000000
 CY7 / BOHR                  1.05591912     1.03172447     1.02671477     0.00172883     1.00000000
 CZ7 / BOHR                  0.00000000     0.00000000     0.00000000     0.00000000     1.00000000
 CX8 / BOHR                 -5.40410561    -5.44351326    -5.44862558    -0.00092025     1.00000000
 CY8 / BOHR                 -1.05592330    -1.03172510    -1.02671362    -0.00172928     1.00000000
 CZ8 / BOHR                  0.00000000     0.00000000     0.00000000     0.00000000     1.00000000
 HX9 / BOHR                  3.06542382     3.02729987     3.00782855    -0.00053939     1.00000000
 HY9 / BOHR                 -3.60679522    -3.63790871    -3.65428692     0.00001570     1.00000000
 HZ9 / BOHR                  0.00000000     0.00000000     0.00000000     0.00000000     1.00000000
 HX10 / BOHR                -3.06543818    -3.02731024    -3.00783177     0.00053909     1.00000000
 HY10 / BOHR                 3.60683012     3.63793269     3.65430063    -0.00001667     1.00000000
 HZ10 / BOHR                 0.00000000     0.00000000     0.00000000     0.00000000     1.00000000
 HX11 / BOHR                 1.52774403     1.58750062     1.61882991    -0.00009205     1.00000000
 HY11 / BOHR                 4.46768124     4.45084283     4.44175126     0.00006657     1.00000000
 HZ11 / BOHR                 0.00000000     0.00000000     0.00000000     0.00000000     1.00000000
 HX12 / BOHR                -1.52770955    -1.58747776    -1.61882144     0.00009281     1.00000000
 HY12 / BOHR                -4.46766019    -4.45081718    -4.44173155    -0.00006759     1.00000000
 HZ12 / BOHR                 0.00000000     0.00000000     0.00000000     0.00000000     1.00000000
 CX13 / BOHR                 7.20582756     7.31406739     7.34022346    -0.00163096     1.00000000
 CY13 / BOHR                -0.74022456    -0.68838713    -0.66901676    -0.00466812     1.00000000
 CZ13 / BOHR                 0.00000000     0.00000000     0.00000000     0.00000000     1.00000000
 CX14 / BOHR                -7.20584464    -7.31408470    -7.34023610     0.00163155     1.00000000
 CY14 / BOHR                 0.74018636     0.68835203     0.66899392     0.00466724     1.00000000
 CZ14 / BOHR                 0.00000000     0.00000000     0.00000000     0.00000000     1.00000000
 HX15 / BOHR                 5.97127128     5.94463339     5.92216709     0.00078592     1.00000000
 HY15 / BOHR                 3.05235653     3.04925097     3.05207441    -0.00051733     1.00000000
 HZ15 / BOHR                 0.00000000     0.00000000     0.00000000     0.00000000     1.00000000
 HX16 / BOHR                -5.97122298    -5.94458390    -5.92213288    -0.00078560     1.00000000
 HY16 / BOHR                -3.05236985    -3.04926169    -3.05208015     0.00051675     1.00000000
 HZ16 / BOHR                 0.00000000     0.00000000     0.00000000     0.00000000     1.00000000
 HX17 / BOHR                -9.14491402    -9.28536147    -9.32021089     0.00206864     1.00000000
[...]
 HY16 / BOHR                -3.04926169    -3.05208015    -3.05342906     0.00010778     1.00000000
 HZ16 / BOHR                 0.00000000     0.00000000     0.00000000     0.00000000     1.00000000
 HX17 / BOHR                -9.28536147    -9.32021089    -9.32548229     0.00011051     1.00000000
 HY17 / BOHR                 0.05997439     0.05874257     0.05483513    -0.00002471     1.00000000
 HZ17 / BOHR                 0.00000000     0.00000000     0.00000000     0.00000000     1.00000000
 HX18 / BOHR                 9.28535901     9.32020732     9.32548041    -0.00011052     1.00000000
 HY18 / BOHR                -0.06005151    -0.05879547    -0.05485983     0.00002468     1.00000000
 HZ18 / BOHR                 0.00000000     0.00000000     0.00000000     0.00000000     1.00000000
 HX19 / BOHR                -6.99516276    -7.02305089    -7.02482936    -0.00058804     1.00000000
 HY19 / BOHR                 2.73195201     2.71599735     2.71132832     0.00004767     1.00000000
 HZ19 / BOHR                 0.00000000     0.00000000     0.00000000     0.00000000     1.00000000
 HX20 / BOHR                 6.99508824     7.02300292     7.02480807     0.00058747     1.00000000
 HY20 / BOHR                -2.73197724    -2.71601365    -2.71133563    -0.00004721     1.00000000
 HZ20 / BOHR                 0.00000000     0.00000000     0.00000000     0.00000000     1.00000000
 Convergence:                0.00000000  (line search)     0.03374038     0.00276612  (total)

 Optimization point 5

 Variable                      Last           Current        Next           Gradient       Hessian

 E(KS-SCF000) / Hartree   -382.05075003  -382.05077420  -382.05077641
 CX1 / BOHR                  2.67340251     2.67464885     2.67507507    -0.00041945     1.00000000
 CY1 / BOHR                  0.46167244     0.45499877     0.45328892     0.00018610     1.00000000
 CZ1 / BOHR                  0.00000000     0.00000000     0.00000000     0.00000000     1.00000000
 CX2 / BOHR                  0.90953289     0.91562925     0.91668458     0.00001309     1.00000000
 CY2 / BOHR                  2.49002041     2.48780165     2.48693823     0.00010399     1.00000000
 CZ2 / BOHR                  0.00000000     0.00000000     0.00000000     0.00000000     1.00000000
 CX3 / BOHR                 -1.70243686    -1.69765905    -1.69694259    -0.00004352     1.00000000
 CY3 / BOHR                  2.04258533     2.04707320     2.04832580    -0.00018726     1.00000000
 CZ3 / BOHR                  0.00000000     0.00000000     0.00000000     0.00000000     1.00000000
 CX4 / BOHR                 -2.67339622    -2.67464609    -2.67507447     0.00041962     1.00000000
 CY4 / BOHR                 -0.46165250    -0.45499013    -0.45328730    -0.00018632     1.00000000
 CZ4 / BOHR                  0.00000000     0.00000000     0.00000000     0.00000000     1.00000000
 CX5 / BOHR                 -0.90952800    -0.91562705    -0.91668414    -0.00001359     1.00000000
 CY5 / BOHR                 -2.48999856    -2.48779183    -2.48693613    -0.00010364     1.00000000
 CZ5 / BOHR                  0.00000000     0.00000000     0.00000000     0.00000000     1.00000000
 CX6 / BOHR                  1.70244148     1.69766211     1.69694370     0.00004422     1.00000000
 CY6 / BOHR                 -2.04256392    -2.04706391    -2.04832380     0.00018767     1.00000000
 CZ6 / BOHR                  0.00000000     0.00000000     0.00000000     0.00000000     1.00000000
 CX7 / BOHR                  5.44863449     5.44785172     5.44719960     0.00013932     1.00000000
 CY7 / BOHR                  1.02671477     1.02563860     1.02569556    -0.00014248     1.00000000
 CZ7 / BOHR                  0.00000000     0.00000000     0.00000000     0.00000000     1.00000000
 CX8 / BOHR                 -5.44862558    -5.44784769    -5.44719873    -0.00013945     1.00000000
 CY8 / BOHR                 -1.02671362    -1.02563754    -1.02569503     0.00014257     1.00000000
 CZ8 / BOHR                  0.00000000     0.00000000     0.00000000     0.00000000     1.00000000
 HX9 / BOHR                  3.00782855     3.00125935     3.00026728    -0.00005699     1.00000000
 HY9 / BOHR                 -3.65428692    -3.66047488    -3.66203253    -0.00001514     1.00000000
 HZ9 / BOHR                  0.00000000     0.00000000     0.00000000     0.00000000     1.00000000
 HX10 / BOHR                -3.00783177    -3.00126000    -3.00026739     0.00005692     1.00000000
 HY10 / BOHR                 3.65430063     3.66048074     3.66203358     0.00001482     1.00000000
 HZ10 / BOHR                 0.00000000     0.00000000     0.00000000     0.00000000     1.00000000
 HX11 / BOHR                 1.61882991     1.62919303     1.63100837     0.00002839     1.00000000
 HY11 / BOHR                 4.44175126     4.43780718     4.43661275     0.00001012     1.00000000
 HZ11 / BOHR                 0.00000000     0.00000000     0.00000000     0.00000000     1.00000000
 HX12 / BOHR                -1.61882144    -1.62919098    -1.63100836    -0.00002846     1.00000000
 HY12 / BOHR                -4.44173155    -4.43779763    -4.43661051    -0.00001023     1.00000000
 HZ12 / BOHR                 0.00000000     0.00000000     0.00000000     0.00000000     1.00000000
 CX13 / BOHR                 7.34022346     7.34490895     7.34491792    -0.00035913     1.00000000
 CY13 / BOHR                -0.66901676    -0.66434514    -0.66378557     0.00032295     1.00000000
 CZ13 / BOHR                 0.00000000     0.00000000     0.00000000     0.00000000     1.00000000
 CX14 / BOHR                -7.34023610    -7.34491509    -7.34491946     0.00035907     1.00000000
 CY14 / BOHR                 0.66899392     0.66433497     0.66378349    -0.00032307     1.00000000
 CZ14 / BOHR                 0.00000000     0.00000000     0.00000000     0.00000000     1.00000000
 HX15 / BOHR                 5.92216709     5.91128687     5.90766486     0.00016854     1.00000000
 HY15 / BOHR                 3.05207441     3.05342702     3.05404361     0.00000714     1.00000000
 HZ15 / BOHR                 0.00000000     0.00000000     0.00000000     0.00000000     1.00000000
 HX16 / BOHR                -5.92213288    -5.91127102    -5.90766127    -0.00016837     1.00000000
 HY16 / BOHR                -3.05208015    -3.05342906    -3.05404375    -0.00000733     1.00000000
 HZ16 / BOHR                 0.00000000     0.00000000     0.00000000     0.00000000     1.00000000
 HX17 / BOHR                -9.32021089    -9.32548229    -9.32514211    -0.00013411     1.00000000
 HY17 / BOHR                 0.05874257     0.05483513     0.05377900     0.00008747     1.00000000
 HZ17 / BOHR                 0.00000000     0.00000000     0.00000000     0.00000000     1.00000000
 HX18 / BOHR                 9.32020732     9.32548041     9.32514171     0.00013406     1.00000000
 HY18 / BOHR                -0.05879547    -0.05485983    -0.05378487    -0.00008756     1.00000000
 HZ18 / BOHR                 0.00000000     0.00000000     0.00000000     0.00000000     1.00000000
 HX19 / BOHR                -7.02305089    -7.02482936    -7.02208591    -0.00025662     1.00000000
 HY19 / BOHR                 2.71599735     2.71132832     2.71021677     0.00010979     1.00000000
 HZ19 / BOHR                 0.00000000     0.00000000     0.00000000     0.00000000     1.00000000
 HX20 / BOHR                 7.02300292     7.02480807     7.02208134     0.00025646     1.00000000
 HY20 / BOHR                -2.71601365    -2.71133563    -2.71021823    -0.00010959     1.00000000
 HZ20 / BOHR                 0.00000000     0.00000000     0.00000000     0.00000000     1.00000000
 Convergence:                0.00000000  (line search)     0.00886843     0.00115589  (total)

 Freezing grid

 Optimization point 6

 Variable                      Last           Current        Next           Gradient       Hessian

 E(KS-SCF000) / Hartree   -382.05077420  -382.05077683  -382.05077703
 CX1 / BOHR                  2.67464885     2.67507507     2.67517463    -0.00008529     1.00000000
 CY1 / BOHR                  0.45499877     0.45328892     0.45327673    -0.00000950     1.00000000
 CZ1 / BOHR                  0.00000000     0.00000000     0.00000000     0.00000000     1.00000000
 CX2 / BOHR                  0.91562925     0.91668458     0.91644120     0.00008057     1.00000000
 CY2 / BOHR                  2.48780165     2.48693823     2.48672341     0.00008953     1.00000000
 CZ2 / BOHR                  0.00000000     0.00000000     0.00000000     0.00000000     1.00000000
 CX3 / BOHR                 -1.69765905    -1.69694259    -1.69719227     0.00002727     1.00000000
 CY3 / BOHR                  2.04707320     2.04832580     2.04841019    -0.00007878     1.00000000
 CZ3 / BOHR                  0.00000000     0.00000000     0.00000000     0.00000000     1.00000000
 CX4 / BOHR                 -2.67464609    -2.67507447    -2.67517470     0.00008522     1.00000000
 CY4 / BOHR                 -0.45499013    -0.45328730    -0.45327713     0.00000927     1.00000000
 CZ4 / BOHR                  0.00000000     0.00000000     0.00000000     0.00000000     1.00000000
 CX5 / BOHR                 -0.91562705    -0.91668414    -0.91644134    -0.00008079     1.00000000
 CY5 / BOHR                 -2.48779183    -2.48693613    -2.48672364    -0.00008948     1.00000000
 CZ5 / BOHR                  0.00000000     0.00000000     0.00000000     0.00000000     1.00000000
 CX6 / BOHR                  1.69766211     1.69694370     1.69719246    -0.00002683     1.00000000
 CY6 / BOHR                 -2.04706391    -2.04832380    -2.04841037     0.00007896     1.00000000
 CZ6 / BOHR                  0.00000000     0.00000000     0.00000000     0.00000000     1.00000000
 CX7 / BOHR                  5.44785172     5.44719960     5.44710074    -0.00005350     1.00000000
 CY7 / BOHR                  1.02563860     1.02569556     1.02597213    -0.00001656     1.00000000
 CZ7 / BOHR                  0.00000000     0.00000000     0.00000000     0.00000000     1.00000000
 CX8 / BOHR                 -5.44784769    -5.44719873    -5.44710084     0.00005349     1.00000000
 CY8 / BOHR                 -1.02563754    -1.02569503    -1.02597197     0.00001662     1.00000000
 CZ8 / BOHR                  0.00000000     0.00000000     0.00000000     0.00000000     1.00000000
 HX9 / BOHR                  3.00125935     3.00026728     3.00050662     0.00000901     1.00000000
 HY9 / BOHR                 -3.66047488    -3.66203253    -3.66211903     0.00000699     1.00000000
 HZ9 / BOHR                  0.00000000     0.00000000     0.00000000     0.00000000     1.00000000
 HX10 / BOHR                -3.00126000    -3.00026739    -3.00050667    -0.00000907     1.00000000
 HY10 / BOHR                 3.66048074     3.66203358     3.66211871    -0.00000704     1.00000000
 HZ10 / BOHR                 0.00000000     0.00000000     0.00000000     0.00000000     1.00000000
 HX11 / BOHR                 1.62919303     1.63100837     1.63070946    -0.00000999     1.00000000
 HY11 / BOHR                 4.43780718     4.43661275     4.43643370    -0.00000098     1.00000000
 HZ11 / BOHR                 0.00000000     0.00000000     0.00000000     0.00000000     1.00000000
 HX12 / BOHR                -1.62919098    -1.63100836    -1.63070968     0.00000994     1.00000000
 HY12 / BOHR                -4.43779763    -4.43661051    -4.43643387     0.00000099     1.00000000
 HZ12 / BOHR                 0.00000000     0.00000000     0.00000000     0.00000000     1.00000000
 CX13 / BOHR                 7.34490895     7.34491792     7.34447008    -0.00005314     1.00000000
 CY13 / BOHR                -0.66434514    -0.66378557    -0.66392735     0.00012123     1.00000000
 CZ13 / BOHR                 0.00000000     0.00000000     0.00000000     0.00000000     1.00000000
 CX14 / BOHR                -7.34491509    -7.34491946    -7.34447003     0.00005304     1.00000000
 CY14 / BOHR                 0.66433497     0.66378349     0.66392770    -0.00012123     1.00000000
 CZ14 / BOHR                 0.00000000     0.00000000     0.00000000     0.00000000     1.00000000
 HX15 / BOHR                 5.91128687     5.90766486     5.90715364     0.00003672     1.00000000
 HY15 / BOHR                 3.05342702     3.05404361     3.05438665     0.00000191     1.00000000
 HZ15 / BOHR                 0.00000000     0.00000000     0.00000000     0.00000000     1.00000000
 HX16 / BOHR                -5.91127102    -5.90766127    -5.90715393    -0.00003666     1.00000000
 HY16 / BOHR                -3.05342906    -3.05404375    -3.05438642    -0.00000193     1.00000000
 HZ16 / BOHR                 0.00000000     0.00000000     0.00000000     0.00000000     1.00000000
 HX17 / BOHR                -9.32548229    -9.32514211    -9.32462339    -0.00005351     1.00000000
 HY17 / BOHR                 0.05483513     0.05377900     0.05406602     0.00000902     1.00000000
 HZ17 / BOHR                 0.00000000     0.00000000     0.00000000     0.00000000     1.00000000
 HX18 / BOHR                 9.32548041     9.32514171     9.32462349     0.00005351     1.00000000
 HY18 / BOHR                -0.05485983    -0.05378487    -0.05406575    -0.00000908     1.00000000
 HZ18 / BOHR                 0.00000000     0.00000000     0.00000000     0.00000000     1.00000000
 HX19 / BOHR                -7.02482936    -7.02208591    -7.02038664    -0.00006597     1.00000000
 HY19 / BOHR                 2.71132832     2.71021677     2.71006388     0.00003462     1.00000000
 HZ19 / BOHR                 0.00000000     0.00000000     0.00000000     0.00000000     1.00000000
 HX20 / BOHR                 7.02480807     7.02208134     7.02038717     0.00006597     1.00000000
 HY20 / BOHR                -2.71133563    -2.71021823    -2.71006362    -0.00003457     1.00000000
 HZ20 / BOHR                 0.00000000     0.00000000     0.00000000     0.00000000     1.00000000
 Convergence:                0.00000000  (line search)     0.00293484     0.00034512  (total)

 END OF GEOMETRY OPTIMIZATION.    TOTAL CPU:       531.1 SEC

 ITER.   ENERGY(OLD)    ENERGY(NEW)      DE          GRADMAX     GRADNORM    GRADRMS     STEPMAX     STEPLEN     STEPRMS
   1  -382.02948878  -382.04599024    -0.01650146  0.03180665  0.08883206  0.00148053  0.24590156  0.54540492  0.00909008
   2  -382.04599024  -382.05044587    -0.00445563  0.02153078  0.04378819  0.00072980  0.14440019  0.37142858  0.00619048
   3  -382.05044587  -382.05075003    -0.00030417  0.00466812  0.00971728  0.00016195  0.03484942  0.11400956  0.00190016
   4  -382.05075003  -382.05077420    -0.00002417  0.00093728  0.00276612  0.00004610  0.01088022  0.03374038  0.00056234
   5  -382.05077420  -382.05077683    -0.00000263  0.00041962  0.00115589  0.00001926  0.00362201  0.00886843  0.00014781
   6  -382.05077683  -382.05077707    -0.00000025  0.00012123  0.00034512  0.00000575  0.00169926  0.00293484  0.00004891

 Geometry written to block  1 of record 701


 **********************************************************************************************************************************
 DATASETS  * FILE   NREC   LENGTH (MB)   RECORD NAMES
              1      21        9.19       500      700      610      701      900      950      970     1000     1100     1400   
                                          VAR     GEOM    BASINP    GEOM    SYMINP    ZMAT    AOBASIS   BASIS      S        T 
                                         1410     1200     1210     1080     1600      129      960     1650     1300     1700   
                                           V       H0       H01     AOSYM     SMH      P2S    ABASIS   MOLCAS    ERIS     OPER   
                                         1800   
                                         GRID   
 
              2       8        2.20       500      610      700     1000     1800     1801     2100      701   
                                          VAR    BASINP    GEOM     BASIS    GRID     GRID      RKS     GEOM   
 
 PROGRAMS   *        TOTAL      OPTG        KS       INT   RESTART
 CPU TIMES  *       558.01    531.10     21.75      4.61      0.04
 REAL TIME  *       599.80 SEC
 DISK USED  *        26.57 MB      
 **********************************************************************************************************************************

 Dump information in style MOLDEN to dvb_gopt.molden                                                                 

 Molecular orbitals read from record     2100.2  Type=RKS/CANONICAL (state 1.1)
 Occupation numbers read from record     2100.2  Type=RKS/RHF (state 1.1)
 Orbital energies read from record       2100.2  Type=RKS/CANONICAL (state 1.1)
 Redundancy group numbers read from rec  2100.2  Type=RKS/RHF (state 1.1)
 
 DUMP ORBITAL  1.1 AS ORBITAL    1  occ=    2.0000  eig=  -10.0162  GROUP=   2
 DUMP ORBITAL  2.1 AS ORBITAL    2  occ=    2.0000  eig=  -10.0162  GROUP=   2
 DUMP ORBITAL  3.1 AS ORBITAL    3  occ=    2.0000  eig=  -10.0041  GROUP=   2
 DUMP ORBITAL  4.1 AS ORBITAL    4  occ=    2.0000  eig=  -10.0041  GROUP=   2
 DUMP ORBITAL  5.1 AS ORBITAL    5  occ=    2.0000  eig=  -10.0028  GROUP=   2
 DUMP ORBITAL  6.1 AS ORBITAL    6  occ=    2.0000  eig=  -10.0028  GROUP=   2
 DUMP ORBITAL  7.1 AS ORBITAL    7  occ=    2.0000  eig=  -10.0021  GROUP=   2
 DUMP ORBITAL  8.1 AS ORBITAL    8  occ=    2.0000  eig=  -10.0019  GROUP=   2
 DUMP ORBITAL  9.1 AS ORBITAL    9  occ=    2.0000  eig=   -9.9884  GROUP=   2
 DUMP ORBITAL 10.1 AS ORBITAL   10  occ=    2.0000  eig=   -9.9884  GROUP=   2
 DUMP ORBITAL 11.1 AS ORBITAL   11  occ=    2.0000  eig=   -0.8057  GROUP=   2
 DUMP ORBITAL 12.1 AS ORBITAL   12  occ=    2.0000  eig=   -0.7502  GROUP=   2
 DUMP ORBITAL 13.1 AS ORBITAL   13  occ=    2.0000  eig=   -0.7142  GROUP=   2
 DUMP ORBITAL 14.1 AS ORBITAL   14  occ=    2.0000  eig=   -0.6961  GROUP=   2
 DUMP ORBITAL 15.1 AS ORBITAL   15  occ=    2.0000  eig=   -0.6638  GROUP=   2
 DUMP ORBITAL 16.1 AS ORBITAL   16  occ=    2.0000  eig=   -0.5850  GROUP=   2
 DUMP ORBITAL 17.1 AS ORBITAL   17  occ=    2.0000  eig=   -0.5553  GROUP=   2
 DUMP ORBITAL 18.1 AS ORBITAL   18  occ=    2.0000  eig=   -0.5280  GROUP=   2
 DUMP ORBITAL 19.1 AS ORBITAL   19  occ=    2.0000  eig=   -0.5064  GROUP=   2
 DUMP ORBITAL 20.1 AS ORBITAL   20  occ=    2.0000  eig=   -0.4537  GROUP=   2
 DUMP ORBITAL 21.1 AS ORBITAL   21  occ=    2.0000  eig=   -0.4356  GROUP=   2
 DUMP ORBITAL 22.1 AS ORBITAL   22  occ=    2.0000  eig=   -0.4070  GROUP=   2
 DUMP ORBITAL 23.1 AS ORBITAL   23  occ=    2.0000  eig=   -0.3942  GROUP=   2
 DUMP ORBITAL 24.1 AS ORBITAL   24  occ=    2.0000  eig=   -0.3923  GROUP=   2
 DUMP ORBITAL 25.1 AS ORBITAL   25  occ=    2.0000  eig=   -0.3703  GROUP=   2
 DUMP ORBITAL 26.1 AS ORBITAL   26  occ=    2.0000  eig=   -0.3474  GROUP=   2
 DUMP ORBITAL 27.1 AS ORBITAL   27  occ=    2.0000  eig=   -0.3436  GROUP=   2
 DUMP ORBITAL 28.1 AS ORBITAL   28  occ=    2.0000  eig=   -0.3208  GROUP=   2
 DUMP ORBITAL 29.1 AS ORBITAL   29  occ=    2.0000  eig=   -0.3076  GROUP=   2
 DUMP ORBITAL 30.1 AS ORBITAL   30  occ=    2.0000  eig=   -0.2891  GROUP=   2
 DUMP ORBITAL 31.1 AS ORBITAL   31  occ=    2.0000  eig=   -0.2838  GROUP=   2
 DUMP ORBITAL 32.1 AS ORBITAL   32  occ=    2.0000  eig=   -0.2599  GROUP=   2
 DUMP ORBITAL 33.1 AS ORBITAL   33  occ=    2.0000  eig=   -0.2088  GROUP=   2
 DUMP ORBITAL 34.1 AS ORBITAL   34  occ=    2.0000  eig=   -0.1914  GROUP=   2
 DUMP ORBITAL 35.1 AS ORBITAL   35  occ=    2.0000  eig=   -0.1494  GROUP=   2

 Total charge:      70.000000

 **********************************************************************************************************************************

        OPTG(KS)        KS-SCF  
   -382.05077707   -382.02948878
 **********************************************************************************************************************************
 Variable memory released
