
 MPP nodes  nproc
 leo          1
 ga_uses_ma=false, calling ma_init with nominal heap.
 GA-space will be limited to   8.0 MW (determined by -G option)

 Primary working directories:    /scratch/langner
 Secondary working directories:  /scratch/langner
 
 CPU=
 ia64 1500.000000:1500.000000:1500.000000:1500.000000:1500.000000:1500.000000:15
 00.000000:1500.000000:1500.000000:1500.000000 MHz

 MPP tuning parameters: Latency=     0 Microseconds,   Broadcast speed=    0 MB/sec
 default implementation of scratch files=df  

  ***, divinylbenzene normal mode analysis
 basis=sto-3g
 geometry={angstrom;
 C,,     1.4163719978,        0.2355121874,        0.0000000000
 C,,     0.4890015094,        1.3144209166,        0.0000000000
 C,,    -0.8947801234,        1.0867269771,        0.0000000000
 C,,    -1.4163720294,       -0.2355123705,        0.0000000000
 C,,    -0.4890015794,       -1.3144210102,        0.0000000000
 C,,     0.8947802299,       -1.0867270423,        0.0000000000
 C,,     2.8841366364,        0.5340603619,        0.0000000000
 C,,    -2.8841366816,       -0.5340602541,        0.0000000000
 H,,     1.5818369242,       -1.9427803982,        0.0000000000
 H,,    -1.5818369485,        1.9427802557,        0.0000000000
 H,,     0.8701448970,        2.3449968145,        0.0000000000
 H,,    -0.8701450118,       -2.3449968779,        0.0000000000
 C,,     3.8854284299,       -0.3632773132,        0.0000000000
 C,,    -3.8854283949,        0.3632775240,        0.0000000000
 H,,     3.1308836661,        1.6066979605,        0.0000000000
 H,,    -3.1308838129,       -1.6066978140,        0.0000000000
 H,,    -4.9342673261,        0.0437742937,        0.0000000000
 H,,     4.9342673873,       -0.0437741237,        0.0000000000
 H,,    -3.7106041810,        1.4455140984,        0.0000000000
 H,,     3.7106044660,       -1.4455139314,        0.0000000000
 }
 ks,b3lyp;
 {freq;print,hessian}

 Variables initialized (517), CPU time= 0.00 sec
 Commands  initialized (293), CPU time= 0.02 sec, 436 directives.
 Default parameters read. Elapsed time= 0.07 sec
 Checking input...
 Passed
1


                                         ***  PROGRAM SYSTEM MOLPRO  ***
                         Copyright, University College Cardiff Consultants Limited, 2004

                                    Version 2006.1 linked 8 Jun 2007 12:11:55 


 **********************************************************************************************************************************
 LABEL *   divinylbenzene normal mode analysis                                           
 Linux-2.6.5-7.283-sn2/leo(ia64) 64 bit mpp version (ifort9.1/scs_i8)                    DATE:  11-Jun-07         TIME: 08:23:27  
 **********************************************************************************************************************************

 Patch level:      92
 **********************************************************************************************************************************

 Variable memory set to  200000000 words,  buffer space   230000 words
 
 SETTING BASIS          =    STO-3G


 Recomputing integrals since basis changed


 Using spherical harmonics

 Library entry C      S STO-3G               selected for orbital group  1
 Library entry C      P STO-3G               selected for orbital group  1
 Library entry H      S STO-3G               selected for orbital group  2

1PROGRAM * SEWARD (Integral evaluation for generally contracted gaussian basis sets)     Author: Roland Lindh, 1990

 Geometry written to block  1 of record 700


 Point group  C2h 



 ATOMIC COORDINATES

 NR  ATOM    CHARGE       X              Y              Z

   1  C       6.00    2.676555004    0.445053674    0.000000000
   2  C       6.00   -2.676555004   -0.445053674    0.000000000
   3  C       6.00    0.924078927    2.483895454    0.000000000
   4  C       6.00   -0.924078927   -2.483895454    0.000000000
   5  C       6.00   -1.690889354    2.053616273    0.000000000
   6  C       6.00    1.690889354   -2.053616273    0.000000000
   7  C       6.00    5.450227999    1.009227643    0.000000000
   8  C       6.00   -5.450227999   -1.009227643    0.000000000
   9  C       6.00    7.342395048   -0.686494779    0.000000000
  10  C       6.00   -7.342395048    0.686494779    0.000000000
  11  H       1.00    2.989238368   -3.671322474    0.000000000
  12  H       1.00   -2.989238368    3.671322474    0.000000000
  13  H       1.00    1.644335534    4.431401483    0.000000000
  14  H       1.00   -1.644335534   -4.431401483    0.000000000
  15  H       1.00    5.916512370    3.036218753    0.000000000
  16  H       1.00   -5.916512370   -3.036218753    0.000000000
  17  H       1.00   -9.324413259    0.082721260    0.000000000
  18  H       1.00    9.324413259   -0.082721260    0.000000000
  19  H       1.00   -7.012025423    2.731625401    0.000000000
  20  H       1.00    7.012025423   -2.731625401    0.000000000

 Bond lengths in Bohr (Angstrom)

 1-3  2.688502967  1-6  2.686054407  1-7  2.830468893  2-4  2.688502967  2-5  2.686054407
     (1.422694604)     (1.421398882)     (1.497819742)     (1.422694604)     (1.421398882)

  2- 8  2.830468893   3- 5  2.650131937   3-13  2.076427055   4- 6  2.650131937   4-14  2.076427055
       (1.497819742)       (1.402389528)       (1.098797956)       (1.402389528)       (1.098797956)

  5-12  2.074291088   6-11  2.074291088   7- 9  2.540820866   7-15  2.079931267   8-10  2.540820866
       (1.097667651)       (1.097667651)       (1.344544596)       (1.100652306)       (1.344544596)

  8-16  2.079931267   9-18  2.071940793   9-20  2.071642669  10-17  2.071940793  10-19  2.071642669
       (1.100652306)       (1.096423929)       (1.096266169)       (1.096423929)       (1.096266169)

 Bond angles

  1- 3- 5  121.33655069   1- 3-13  119.02328488   1- 6- 4  120.87203890   1- 6-11  119.72189484

  1- 7- 9  126.63663867   1- 7-15  114.45211469   2- 4- 6  121.33655069   2- 4-14  119.02328488

  2- 5- 3  120.87203890   2- 5-12  119.72189484   2- 8-10  126.63663867   2- 8-16  114.45211469

  3- 1- 6  117.79141041   3- 1- 7  119.18324005   3- 5-12  119.40606626   4- 2- 5  117.79141041

  4- 2- 8  119.18324005   4- 6-11  119.40606626   5- 2- 8  123.02534954   5- 3-13  119.64016443

  6- 1- 7  123.02534954   6- 4-14  119.64016443   7- 9-18  121.19185855   7- 9-20  122.68979456

  8-10-17  121.19185855   8-10-19  122.68979456   9- 7-15  118.91124664  10- 8-16  118.91124664

 17-10-19  116.11834690  18- 9-20  116.11834690

 NUCLEAR CHARGE:                   70
 NUMBER OF PRIMITIVE AOS:         180
 NUMBER OF SYMMETRY AOS:          180
 NUMBER OF CONTRACTIONS:           60   (  25Ag  +   5Au  +  25Bu  +   5Bg  )
 NUMBER OF CORE ORBITALS:          10   (   5Ag  +   0Au  +   5Bu  +   0Bg  )
 NUMBER OF VALENCE ORBITALS:       50   (  20Ag  +   5Au  +  20Bu  +   5Bg  )


 NUCLEAR REPULSION ENERGY  445.81042271


 Eigenvalues of metric

         1 0.193E+00 0.216E+00 0.224E+00 0.283E+00 0.298E+00 0.314E+00 0.321E+00 0.343E+00
         2 0.676E+00 0.773E+00 0.842E+00 0.122E+01 0.152E+01
         3 0.182E+00 0.195E+00 0.249E+00 0.262E+00 0.291E+00 0.299E+00 0.321E+00 0.360E+00
         4 0.598E+00 0.759E+00 0.109E+01 0.118E+01 0.134E+01
 

 Contracted 2-electron integrals neglected if value below      1.0D-11
 AO integral compression algorithm  1   Integral accuracy      1.0D-11

     2.884 MB (compressed) written to integral file ( 54.2%)

     Node minimum: 2.884 MB, node maximum: 2.884 MB
 

 NUMBER OF SORTED TWO-ELECTRON INTEGRALS:     529115.     BUFFER LENGTH:  32768
 NUMBER OF SEGMENTS:   1  SEGMENT LENGTH:     529115      RECORD LENGTH: 524288

 Memory used in sort:       1.09 MW

 SORT1 READ     610800. AND WROTE     513244. INTEGRALS IN    2 RECORDS. CPU TIME:     0.11 SEC, REAL TIME:     0.14 SEC
 SORT2 READ     513244. AND WROTE     529115. INTEGRALS IN   11 RECORDS. CPU TIME:     0.08 SEC, REAL TIME:     0.11 SEC

 Node minimum:     529115.  Node maximum:     529115. integrals

 OPERATOR DM      FOR CENTER  0  COORDINATES:    0.000000    0.000000    0.000000


 **********************************************************************************************************************************
 DATASETS  * FILE   NREC   LENGTH (MB)   RECORD NAMES
              1      19        4.26       500      610      700      900      950      970     1000     1100     1400     1410   
                                          VAR    BASINP    GEOM    SYMINP    ZMAT    AOBASIS   BASIS      S        T        V 
                                         1200     1210     1080     1600      129      960     1650     1300     1700   
                                          H0       H01     AOSYM     SMH      P2S    ABASIS   MOLCAS    ERIS     OPER   
 
 PROGRAMS   *        TOTAL       INT
 CPU TIMES  *         1.72      1.62
 REAL TIME  *         1.84 SEC
 DISK USED  *        13.44 MB      
 **********************************************************************************************************************************

 Density functional group B3LYP=B88+DIRAC+LYP+VWN5
 Functional: B88(Automatically generated B88)                                  Gradient terms: 1
 Functional: DIRAC(Automatically generated DIRAC)                              Gradient terms: 0
 Functional: LYP(Lee-Yang-Parr gradient-corrected correlation energy (1988))   Gradient terms: 1
 Functional: VWN5(Automatically generated VWN5)                                Gradient terms: 0
 Use grid at  1800.2
 

 Exact exchange will be calculated, factor:  0.2000

 Functional: B88                       Factor:  0.7200
 Functional: DIRAC                     Factor:  0.0800
 Functional: LYP                       Factor:  0.8100
 Functional: VWN5                      Factor:  0.1900
 
 Generated new metagrid on record  1800.2 with target accuracy 1.0D-06 and 24610 points in CPU time    0.7
 Computed new grid on record 1800.1 in CPU time    1.1
   52932 words reserved for DFT integration

 PROGRAM * RKS-SCF (Restricted closed shell Kohn-Sham)     Authors: W. Meyer, H.-J. Werner, P.J. Knowles, 1993

 NUMBER OF ELECTRONS:      35+   35-
 CONVERGENCE THRESHOLDS:    1.00E-06 (Density)    1.40E-07 (Energy)
 MAX. NUMBER OF ITERATIONS:       60
 INTERPOLATION TYPE:            DIIS
 INTERPOLATION STEPS:              2 (START)      1 (STEP)
 LEVEL SHIFTS:                  0.00 (CLOSED)  0.00 (OPEN) 



 Density guess generated from atomic densities.  Occupancy:   15   3  15   3

 Molecular orbital dump at record        2100.2

 ITERATION    DDIFF          GRAD             ENERGY        2-EL.EN.            DIPOLE MOMENTS         DIIS
 Generated new metagrid on record  1801.2 with target accuracy 1.0D-03 and 3965 points in CPU time    0.3
 Computed new grid on record 1801.1 in CPU time    0.3
    1      0.000D+00      0.000D+00      -384.34347664   1246.277744   0.000000   0.000000   0.000000    0
    2      0.000D+00      0.492D-01      -382.04122722   1235.155857   0.000000   0.000000   0.000000    0
    3      0.167D+00      0.734D-02      -382.04262173   1240.323068   0.000000   0.000000   0.000000    1
    4      0.157D-01      0.625D-02      -381.36470495   1243.935937   0.000000   0.000000   0.000000    2
    5      0.866D-01      0.113D-01      -382.05082328   1237.365883   0.000000   0.000000   0.000000    3
    6      0.861D-01      0.176D-02      -382.05160415   1237.856555   0.000000   0.000000   0.000000    4
    7      0.209D-02      0.627D-03      -381.37272790   1244.610215   0.000000   0.000000   0.000000    5
    8      0.859D-01      0.914D-02      -381.37202816   1244.686218   0.000000   0.000000   0.000000    6
 Selecting fine grid and restarting DIIS
 Use fine grid record 1800.2 for energy threshold 1.0D-06
    9      0.230D-03      0.923D-02      -381.37535486   1244.379903   0.000000   0.000000   0.000000    7
   10      0.117D-02      0.866D-02      -381.26895167   1231.738657   0.000000   0.000000   0.000000    1
   11      0.391D-01      0.208D-01      -381.39254047   1240.819558   0.000000   0.000000   0.000000    2
   12      0.327D-01      0.609D-02      -381.40018839   1238.906733   0.000000   0.000000   0.000000    3
   13      0.930D-02      0.260D-02      -381.40189100   1239.837961   0.000000   0.000000   0.000000    4
   14      0.282D-02      0.437D-03      -381.40193709   1239.851810   0.000000   0.000000   0.000000    5
   15      0.108D-02      0.331D-03      -381.40196408   1239.863538   0.000000   0.000000   0.000000    6
   16      0.525D-03      0.740D-04      -381.40196762   1239.860429   0.000000   0.000000   0.000000    7
   17      0.220D-03      0.367D-04      -381.40196922   1239.867182   0.000000   0.000000   0.000000    8
   18      0.205D-03      0.130D-04      -381.40196950   1239.869112   0.000000   0.000000   0.000000    9
   19      0.109D-03      0.324D-05      -381.40196951   1239.868512   0.000000   0.000000   0.000000    8
   20      0.160D-04      0.488D-06      -381.40196951   1239.868093   0.000000   0.000000   0.000000    7
   21      0.225D-05      0.436D-06      -381.40196951   1239.868358   0.000000   0.000000   0.000000    8
   22      0.197D-05      0.174D-06      -381.40196951   1239.868311   0.000000   0.000000   0.000000    8
   23      0.605D-06      0.272D-07      -381.40196951   1239.868274   0.000000   0.000000   0.000000    0
 
 Final occupancy:  15   3  14   3
 
 !RKS STATE 1.1 ENERGY               -381.401969506518
 Nuclear energy                       445.81042271
 One-electron energy                -1400.63074039
 Two-electron energy                  619.93413709
 SCF exchange energy                  -54.98003878     Factor=0.2000
 Density functional                   -46.51578891     B88=-55.29867220 DIRAC=-49.78218467 LYP= -2.30605754 VWN5= -4.47507130
 Virial quotient                       -1.01312101
 !RKS STATE 1.1 DIPOLE MOMENT           0.00000000     0.00000000     0.00000000
 Dipole moment /Debye                   0.00000000     0.00000000     0.00000000


 **********************************************************************************************************************************
 DATASETS  * FILE   NREC   LENGTH (MB)   RECORD NAMES
              1      20        5.05       500      610      700      900      950      970     1000     1100     1400     1410   
                                          VAR    BASINP    GEOM    SYMINP    ZMAT    AOBASIS   BASIS      S        T        V 
                                         1200     1210     1080     1600      129      960     1650     1300     1700     1800   
                                          H0       H01     AOSYM     SMH      P2S    ABASIS   MOLCAS    ERIS     OPER     GRID   
 
              2       5        0.47       700     1000     1800     1801     2100   
                                         GEOM     BASIS    GRID     GRID      RKS  
 
 PROGRAMS   *        TOTAL        KS       INT
 CPU TIMES  *        10.74      9.02      1.62
 REAL TIME  *        12.15 SEC
 DISK USED  *        14.65 MB      
 **********************************************************************************************************************************


 Computing numerical hessian using default procedure for command KS-SCF

 *** Long output written to logfile /home_nfs1/langner/dvb_ir.com.log ***


 Symmetry elements for unique displacements: Z  XY 

 Using no symmetry

 Running default procedure: KS-SCF000
 
 Recomputing wavefunction at reference geometry

 Numerically approximating hessian using central gradient differences

 Task list generated. Total number of displacements:     50

    5 tasks completed, CPU=   264.89 sec, Elapsed=   311.05 sec
   10 tasks completed, CPU=   525.01 sec, Elapsed=   622.58 sec
   15 tasks completed, CPU=   788.42 sec, Elapsed=   937.20 sec
   20 tasks completed, CPU=  1055.50 sec, Elapsed=  1242.38 sec
   25 tasks completed, CPU=  1316.66 sec, Elapsed=  1541.88 sec
   30 tasks completed, CPU=  1579.84 sec, Elapsed=  1843.84 sec
   35 tasks completed, CPU=  1849.35 sec, Elapsed=  2154.09 sec
   40 tasks completed, CPU=  2111.43 sec, Elapsed=  2468.50 sec
   45 tasks completed, CPU=  2375.09 sec, Elapsed=  2771.39 sec
   50 tasks completed, CPU=  2633.02 sec, Elapsed=  3078.80 sec

 Numerical KS-SCF000 hessian completed. CPU-time:  2633.02 sec, Elapsed:  3078.80 sec

 KS-SCF hessian saved to record  5300.2

 FREQUENCIES * CALCULATION OF HARMONIC VIBRATIONAL SPECTRA FOR KS-SCF000                       


 Permanent Dipole Moment [debye]
   1-  3    0.000000    0.000000    0.000000

 Dipole Moment Norm    0.0000000 [debye]

 Dipole Moment Derivatives [debye/ang]
                   1             2             3             4             5             6             7             8
         1     0.8960758    -0.3473540     0.0000000    -0.8899980     0.3575054     0.0000000    -0.5513686    -0.5286447
         2    -0.0043741    -0.7184876     0.0000000     0.3936619     0.1303774     0.0000000    -0.4744880    -0.1974274
         3     0.0000000     0.0000000     0.1318460     0.0000000     0.0000000    -0.4360107     0.0000000     0.0000000
                   9            10            11            12            13            14            15            16
         1     0.0000000     0.8960758    -0.3473540     0.0000000    -0.8899980     0.3575054     0.0000000    -0.5513686
         2     0.0000000    -0.0043741    -0.7184876     0.0000000     0.3936619     0.1303774     0.0000000    -0.4744880
         3    -0.3987249     0.0000000     0.0000000     0.1318460     0.0000000     0.0000000    -0.4360107     0.0000000
                  17            18            19            20            21            22            23            24
         1    -0.5286447     0.0000000     0.9566177     1.6169704     0.0000000     0.9566177     1.6169704     0.0000000
         2    -0.1974274     0.0000000     0.0891206    -0.0226520     0.0000000     0.0891206    -0.0226520     0.0000000
         3     0.0000000    -0.3987249     0.0000000     0.0000000    -0.3782278     0.0000000     0.0000000    -0.3782278
                  25            26            27            28            29            30            31            32
         1     0.1685736     0.0480818     0.0000000     0.1685736     0.0480818     0.0000000     0.1734457    -0.0922727
         2     0.0532290     0.2986884     0.0000000     0.0532290     0.2986884     0.0000000    -0.0583932     0.2889642
         3     0.0000000     0.0000000     0.3798360     0.0000000     0.0000000     0.3798360     0.0000000     0.0000000
                  33            34            35            36            37            38            39            40
         1     0.0000000     0.1734457    -0.0922727     0.0000000    -1.2354635    -0.2683153     0.0000000    -1.2354635
         2     0.0000000    -0.0583932     0.2889642     0.0000000     0.2152172    -0.1823856     0.0000000     0.2152172
         3     0.3726505     0.0000000     0.0000000     0.3726505     0.0000000     0.0000000    -0.9818115     0.0000000
                  41            42            43            44            45            46            47            48
         1    -0.2683153     0.0000000    -0.1464464    -0.3125866     0.0000000    -0.1464464    -0.3125866     0.0000000
         2    -0.1823856     0.0000000     0.0929990     0.0981583     0.0000000     0.0929990     0.0981583     0.0000000
         3     0.0000000    -0.9818115     0.0000000     0.0000000     0.3852943     0.0000000     0.0000000     0.3852943
                  49            50            51            52            53            54            55            56
         1     0.5523205     0.2681797     0.0000000     0.5523205     0.2681797     0.0000000     0.0762975    -0.7463948
         2    -0.2079313     0.1270462     0.0000000    -0.2079313     0.1270462     0.0000000    -0.0963157     0.1787968
         3     0.0000000     0.0000000     0.4522796     0.0000000     0.0000000     0.4522796     0.0000000     0.0000000
                  57            58            59            60
         1     0.0000000     0.0762975    -0.7463948     0.0000000
         2     0.0000000    -0.0963157     0.1787968     0.0000000
         3     0.4727320     0.0000000     0.0000000     0.4727320

 Projecting out rotations and translations

 Force Constants (Second Derivatives of the Energy) in [a.u.]
                             CX1         CY1         CZ1         CX2         CY2     
           CX1           0.7057663
           CY1           0.0039020   0.7253286
           CZ1           0.0000000   0.0000000   0.1578653
           CX2          -0.2089598   0.0528992   0.0000000   0.7582163
           CY2           0.1379167  -0.2647616   0.0000000   0.0558983   0.8220091
           CZ2           0.0000000   0.0000000  -0.0665729   0.0000000   0.0000000
           CX3          -0.0549474   0.0803818   0.0000000  -0.3781374  -0.0885771
           CY3           0.0102261   0.0611284   0.0000000   0.0140633  -0.1539436
           CZ3           0.0000000   0.0000000   0.0070096   0.0000000   0.0000000
           CX4           0.0104055   0.0157767   0.0000000  -0.0159636  -0.0369885
           CY4           0.0157767  -0.0839335   0.0000000  -0.1087639   0.0211223
           CZ4           0.0000000   0.0000000  -0.0089530   0.0000000   0.0000000
           CX5          -0.0159636  -0.1087639   0.0000000  -0.0767087   0.0271332
           CY5          -0.0369885   0.0211223   0.0000000   0.0271332  -0.0082654
           CZ5           0.0000000   0.0000000   0.0069209   0.0000000   0.0000000
           CX6          -0.1549948  -0.0166966   0.0000000   0.0749352  -0.0059304
           CY6          -0.0976138  -0.3190822   0.0000000   0.0531619  -0.0599528
           CZ6           0.0000000   0.0000000  -0.0674463   0.0000000   0.0000000
           CX7          -0.2373711  -0.0267874   0.0000000  -0.0446570   0.0064197
           CY7          -0.0563065  -0.1235868   0.0000000   0.0317474   0.0064530
           CZ7           0.0000000   0.0000000  -0.0633588   0.0000000   0.0000000
           CX8          -0.0060774  -0.0002856   0.0000000   0.0101242  -0.0016721
           CY8           0.0015401  -0.0002460   0.0000000  -0.0008842  -0.0064276
           CZ8           0.0000000   0.0000000  -0.0010001   0.0000000   0.0000000
           HX9           0.0127642  -0.0140889   0.0000000  -0.0015318  -0.0025785
           HY9           0.0223057  -0.0148235   0.0000000  -0.0040933  -0.0036961
           HZ9           0.0000000   0.0000000   0.0027577   0.0000000   0.0000000
           HX10         -0.0040205  -0.0033596   0.0000000  -0.0135978   0.0284941
           HY10         -0.0018136   0.0001656   0.0000000  -0.0112504   0.0089981
           HZ10          0.0000000   0.0000000   0.0088397   0.0000000   0.0000000
           HX11          0.0099946   0.0235058   0.0000000  -0.1063055  -0.1102644
           HY11         -0.0134258  -0.0147105   0.0000000  -0.1100584  -0.3655602
           HZ11          0.0000000   0.0000000   0.0024526   0.0000000   0.0000000
           HX12         -0.0052467   0.0015064   0.0000000  -0.0005038   0.0006119
           HY12          0.0000391   0.0012158   0.0000000   0.0007808   0.0010606
           HZ12          0.0000000   0.0000000   0.0088014   0.0000000   0.0000000
           CX13         -0.0483743   0.0216858   0.0000000   0.0027940  -0.0069918
           CY13          0.0129923   0.0173347   0.0000000  -0.0070706   0.0010188
           CZ13          0.0000000   0.0000000   0.0054707   0.0000000   0.0000000
           CX14          0.0018536   0.0008032   0.0000000  -0.0016517   0.0013970
           CY14         -0.0019589   0.0000753   0.0000000   0.0029288  -0.0006421
           CZ14          0.0000000   0.0000000  -0.0000458   0.0000000   0.0000000
           HX15         -0.0067452  -0.0317923   0.0000000   0.0018104  -0.0021218
           HY15          0.0036825  -0.0025228   0.0000000   0.0025818   0.0014939
           HZ15          0.0000000   0.0000000   0.0023472   0.0000000   0.0000000
           HX16          0.0001704   0.0000209   0.0000000   0.0003160  -0.0017228
           HY16          0.0000597   0.0001619   0.0000000   0.0001818  -0.0001673
           HZ16          0.0000000   0.0000000   0.0001169   0.0000000   0.0000000
           HX17          0.0001220   0.0001641   0.0000000   0.0000122  -0.0002312
           HY17         -0.0000658   0.0000500   0.0000000   0.0000031   0.0001961
           HZ17          0.0000000   0.0000000   0.0001521   0.0000000   0.0000000
           HX18         -0.0000404   0.0027668   0.0000000  -0.0004002  -0.0004951
           HY18          0.0012583  -0.0033433   0.0000000   0.0009229   0.0007968
           HZ18          0.0000000   0.0000000   0.0129280   0.0000000   0.0000000
           HX19         -0.0000598   0.0001007   0.0000000   0.0000806  -0.0002003
           HY19         -0.0001162  -0.0001223   0.0000000  -0.0000019   0.0003663
           HZ19          0.0000000   0.0000000  -0.0000763   0.0000000   0.0000000
           HX20          0.0017243  -0.0017391   0.0000000   0.0001283  -0.0000968
           HY20         -0.0014102   0.0005501   0.0000000  -0.0001797  -0.0000982
           HZ20          0.0000000   0.0000000  -0.0082088   0.0000000   0.0000000
                             CZ2         CX3         CY3         CZ3         CX4     
           CZ2           0.1411973
           CX3           0.0000000   0.7966819
           CY3           0.0000000  -0.0661120   0.7845262
           CZ3          -0.0623986   0.0000000   0.0000000   0.1410944
           CX4           0.0000000  -0.1549948  -0.0976138   0.0000000   0.7057663
           CY4           0.0000000  -0.0166966  -0.3190822   0.0000000   0.0039020
           CZ4           0.0069209   0.0000000   0.0000000  -0.0674463   0.0000000
           CX5           0.0000000   0.0749352   0.0531619   0.0000000  -0.2089598
           CY5           0.0000000  -0.0059304  -0.0599528   0.0000000   0.1379167
           CZ5          -0.0071464   0.0000000   0.0000000   0.0065522   0.0000000
           CX6           0.0000000  -0.0509859  -0.0423618   0.0000000  -0.0549474
           CY6           0.0000000  -0.0423618  -0.0318373   0.0000000   0.0102261
           CZ6           0.0065522   0.0000000   0.0000000  -0.0063933   0.0000000
           CX7           0.0000000   0.0068815   0.0062465   0.0000000  -0.0060774
           CY7           0.0000000   0.0009261  -0.0049557   0.0000000   0.0015401
           CZ7           0.0040446   0.0000000   0.0000000   0.0074488   0.0000000
           CX8           0.0000000  -0.0252416  -0.0212277   0.0000000  -0.2373711
           CY8           0.0000000  -0.0334347   0.0012660   0.0000000  -0.0563065
           CZ8           0.0068385   0.0000000   0.0000000   0.0027394   0.0000000
           HX9           0.0000000   0.0000570  -0.0009657   0.0000000  -0.0040205
           HY9           0.0000000  -0.0010330   0.0004511   0.0000000  -0.0018136
           HZ9           0.0076948   0.0000000   0.0000000  -0.0009548   0.0000000
           HX10          0.0000000  -0.1991391   0.1659237   0.0000000   0.0127642
           HY10          0.0000000   0.1671319  -0.2746402   0.0000000   0.0223057
           HZ10          0.0037275   0.0000000   0.0000000  -0.0402298   0.0000000
           HX11          0.0000000  -0.0059048  -0.0330873   0.0000000  -0.0052467
           HY11          0.0000000   0.0062608   0.0016542   0.0000000   0.0000391
           HZ11         -0.0398637   0.0000000   0.0000000   0.0033364   0.0000000
           HX12          0.0000000  -0.0036429   0.0024799   0.0000000   0.0099946
           HY12          0.0000000   0.0040347  -0.0015920   0.0000000  -0.0134258
           HZ12         -0.0009046   0.0000000   0.0000000   0.0073860   0.0000000
           CX13          0.0000000  -0.0032717  -0.0009423   0.0000000   0.0018536
           CY13          0.0000000   0.0015305   0.0019594   0.0000000  -0.0019589
           CZ13          0.0014886   0.0000000   0.0000000  -0.0000582   0.0000000
           CX14          0.0000000   0.0036588   0.0063361   0.0000000  -0.0483743
           CY14          0.0000000  -0.0050431  -0.0050097   0.0000000   0.0129923
           CZ14         -0.0005120   0.0000000   0.0000000   0.0002824   0.0000000
           HX15          0.0000000   0.0001228   0.0000996   0.0000000   0.0001704
           HY15          0.0000000  -0.0000409  -0.0001206   0.0000000   0.0000597
           HZ15         -0.0010048   0.0000000   0.0000000  -0.0000751   0.0000000
           HX16          0.0000000  -0.0052935   0.0018356   0.0000000  -0.0067452
           HY16          0.0000000   0.0000904   0.0006953   0.0000000   0.0036825
           HZ16          0.0000610   0.0000000   0.0000000   0.0025022   0.0000000
           HX17          0.0000000   0.0004726   0.0002187   0.0000000  -0.0000404
           HY17          0.0000000  -0.0001295  -0.0005349   0.0000000   0.0012583
           HZ17         -0.0003341   0.0000000   0.0000000  -0.0004318   0.0000000
           HX18          0.0000000  -0.0001974   0.0004225   0.0000000   0.0001220
           HY18          0.0000000   0.0000585  -0.0002614   0.0000000  -0.0000658
           HZ18          0.0000287   0.0000000   0.0000000  -0.0009011   0.0000000
           HX19          0.0000000  -0.0011880   0.0013568   0.0000000   0.0017243
           HY19          0.0000000  -0.0010654   0.0004493   0.0000000  -0.0014102
           HZ19          0.0001838   0.0000000   0.0000000   0.0003024   0.0000000
           HX20          0.0000000   0.0001347  -0.0000600   0.0000000  -0.0000598
           HY20          0.0000000   0.0000099  -0.0001996   0.0000000  -0.0001162
           HZ20         -0.0000010   0.0000000   0.0000000   0.0002352   0.0000000
                             CY4         CZ4         CX5         CY5         CZ5     
           CY4           0.7253286
           CZ4           0.0000000   0.1578653
           CX5           0.0528992   0.0000000   0.7582163
           CY5          -0.2647616   0.0000000   0.0558983   0.8220091
           CZ5           0.0000000  -0.0665729   0.0000000   0.0000000   0.1411973
           CX6           0.0803818   0.0000000  -0.3781374  -0.0885771   0.0000000
           CY6           0.0611284   0.0000000   0.0140633  -0.1539436   0.0000000
           CZ6           0.0000000   0.0070096   0.0000000   0.0000000  -0.0623986
           CX7          -0.0002856   0.0000000   0.0101242  -0.0016721   0.0000000
           CY7          -0.0002460   0.0000000  -0.0008842  -0.0064276   0.0000000
           CZ7           0.0000000  -0.0010001   0.0000000   0.0000000   0.0068385
           CX8          -0.0267874   0.0000000  -0.0446570   0.0064197   0.0000000
           CY8          -0.1235868   0.0000000   0.0317474   0.0064530   0.0000000
           CZ8           0.0000000  -0.0633588   0.0000000   0.0000000   0.0040446
           HX9          -0.0033596   0.0000000  -0.0135978   0.0284941   0.0000000
           HY9           0.0001656   0.0000000  -0.0112504   0.0089981   0.0000000
           HZ9           0.0000000   0.0088397   0.0000000   0.0000000   0.0037275
           HX10         -0.0140889   0.0000000  -0.0015318  -0.0025785   0.0000000
           HY10         -0.0148235   0.0000000  -0.0040933  -0.0036961   0.0000000
           HZ10          0.0000000   0.0027577   0.0000000   0.0000000   0.0076948
           HX11          0.0015064   0.0000000  -0.0005038   0.0006119   0.0000000
           HY11          0.0012158   0.0000000   0.0007808   0.0010606   0.0000000
           HZ11          0.0000000   0.0088014   0.0000000   0.0000000  -0.0009046
           HX12          0.0235058   0.0000000  -0.1063055  -0.1102644   0.0000000
           HY12         -0.0147105   0.0000000  -0.1100584  -0.3655602   0.0000000
           HZ12          0.0000000   0.0024526   0.0000000   0.0000000  -0.0398637
           CX13          0.0008032   0.0000000  -0.0016517   0.0013970   0.0000000
           CY13          0.0000753   0.0000000   0.0029288  -0.0006421   0.0000000
           CZ13          0.0000000  -0.0000458   0.0000000   0.0000000  -0.0005120
           CX14          0.0216858   0.0000000   0.0027940  -0.0069918   0.0000000
           CY14          0.0173347   0.0000000  -0.0070706   0.0010188   0.0000000
           CZ14          0.0000000   0.0054707   0.0000000   0.0000000   0.0014886
           HX15          0.0000209   0.0000000   0.0003160  -0.0017228   0.0000000
           HY15          0.0001619   0.0000000   0.0001818  -0.0001673   0.0000000
           HZ15          0.0000000   0.0001169   0.0000000   0.0000000   0.0000610
           HX16         -0.0317923   0.0000000   0.0018104  -0.0021218   0.0000000
           HY16         -0.0025228   0.0000000   0.0025818   0.0014939   0.0000000
           HZ16          0.0000000   0.0023472   0.0000000   0.0000000  -0.0010048
           HX17          0.0027668   0.0000000  -0.0004002  -0.0004951   0.0000000
           HY17         -0.0033433   0.0000000   0.0009229   0.0007968   0.0000000
           HZ17          0.0000000   0.0129280   0.0000000   0.0000000   0.0000287
           HX18          0.0001641   0.0000000   0.0000122  -0.0002312   0.0000000
           HY18          0.0000500   0.0000000   0.0000031   0.0001961   0.0000000
           HZ18          0.0000000   0.0001521   0.0000000   0.0000000  -0.0003341
           HX19         -0.0017391   0.0000000   0.0001283  -0.0000968   0.0000000
           HY19          0.0005501   0.0000000  -0.0001797  -0.0000982   0.0000000
           HZ19          0.0000000  -0.0082088   0.0000000   0.0000000  -0.0000010
           HX20          0.0001007   0.0000000   0.0000806  -0.0002003   0.0000000
           HY20         -0.0001223   0.0000000  -0.0000019   0.0003663   0.0000000
           HZ20          0.0000000  -0.0000763   0.0000000   0.0000000   0.0001838
                             CX6         CY6         CZ6         CX7         CY7     
           CX6           0.7966819
           CY6          -0.0661120   0.7845262
           CZ6           0.0000000   0.0000000   0.1410944
           CX7          -0.0252416  -0.0212277   0.0000000   0.7731012
           CY7          -0.0334347   0.0012660   0.0000000  -0.1416012   0.8784754
           CZ7           0.0000000   0.0000000   0.0027394   0.0000000   0.0000000
           CX8           0.0068815   0.0062465   0.0000000   0.0032445  -0.0008132
           CY8           0.0009261  -0.0049557   0.0000000  -0.0008132  -0.0001500
           CZ8           0.0000000   0.0000000   0.0074488   0.0000000   0.0000000
           HX9          -0.1991391   0.1659237   0.0000000  -0.0000477   0.0011420
           HY9           0.1671319  -0.2746402   0.0000000   0.0017035   0.0012858
           HZ9           0.0000000   0.0000000  -0.0402298   0.0000000   0.0000000
           HX10          0.0000570  -0.0009657   0.0000000  -0.0003213   0.0013789
           HY10         -0.0010330   0.0004511   0.0000000  -0.0002257   0.0004799
           HZ10          0.0000000   0.0000000  -0.0009548   0.0000000   0.0000000
           HX11         -0.0036429   0.0024799   0.0000000   0.0016512   0.0021083
           HY11          0.0040347  -0.0015920   0.0000000  -0.0023332   0.0016221
           HZ11          0.0000000   0.0000000   0.0073860   0.0000000   0.0000000
           HX12         -0.0059048  -0.0330873   0.0000000   0.0001988  -0.0015241
           HY12          0.0062608   0.0016542   0.0000000   0.0000853   0.0000991
           HZ12          0.0000000   0.0000000   0.0033364   0.0000000   0.0000000
           CX13          0.0036588   0.0063361   0.0000000  -0.3919915   0.2546735
           CY13         -0.0050431  -0.0050097   0.0000000   0.2318730  -0.3684836
           CZ13          0.0000000   0.0000000   0.0002824   0.0000000   0.0000000
           CX14         -0.0032717  -0.0009423   0.0000000  -0.0009641   0.0002403
           CY14          0.0015305   0.0019594   0.0000000   0.0013181   0.0000955
           CZ14          0.0000000   0.0000000  -0.0000582   0.0000000   0.0000000
           HX15         -0.0052935   0.0018356   0.0000000  -0.0838761  -0.0763803
           HY15          0.0000904   0.0006953   0.0000000  -0.0734565  -0.3826003
           HZ15          0.0000000   0.0000000   0.0025022   0.0000000   0.0000000
           HX16          0.0001228   0.0000996   0.0000000   0.0000484   0.0000230
           HY16         -0.0000409  -0.0001206   0.0000000   0.0000162   0.0000272
           HZ16          0.0000000   0.0000000  -0.0000751   0.0000000   0.0000000
           HX17         -0.0001974   0.0004225   0.0000000  -0.0000505  -0.0001005
           HY17          0.0000585  -0.0002614   0.0000000  -0.0000377  -0.0000751
           HZ17          0.0000000   0.0000000  -0.0009011   0.0000000   0.0000000
           HX18          0.0004726   0.0002187   0.0000000  -0.0158896  -0.0124824
           HY18         -0.0001295  -0.0005349   0.0000000   0.0286044   0.0099670
           HZ18          0.0000000   0.0000000  -0.0004318   0.0000000   0.0000000
           HX19          0.0001347  -0.0000600   0.0000000  -0.0000278   0.0002026
           HY19          0.0000099  -0.0001996   0.0000000   0.0001018   0.0001154
           HZ19          0.0000000   0.0000000   0.0002352   0.0000000   0.0000000
           HX20         -0.0011880   0.0013568   0.0000000   0.0112659   0.0295450
           HY20         -0.0010654   0.0004493   0.0000000  -0.0079283  -0.0133614
           HZ20          0.0000000   0.0000000   0.0003024   0.0000000   0.0000000
                             CZ7         CX8         CY8         CZ8         HX9     
           CZ7           0.1385098
           CX8           0.0000000   0.7731012
           CY8           0.0000000  -0.1416012   0.8784754
           CZ8          -0.0010689   0.0000000   0.0000000   0.1385098
           HX9           0.0000000  -0.0003213   0.0013789   0.0000000   0.2061818
           HY9           0.0000000  -0.0002257   0.0004799   0.0000000  -0.1734708
           HZ9          -0.0039209   0.0000000   0.0000000   0.0000450   0.0000000
           HX10          0.0000000  -0.0000477   0.0011420   0.0000000  -0.0000114
           HY10          0.0000000   0.0017035   0.0012858   0.0000000   0.0002366
           HZ10          0.0000450   0.0000000   0.0000000  -0.0039209   0.0000000
           HX11          0.0000000   0.0001988  -0.0015241   0.0000000   0.0006148
           HY11          0.0000000   0.0000853   0.0000991   0.0000000  -0.0006807
           HZ11         -0.0038660   0.0000000   0.0000000   0.0001546   0.0000000
           HX12          0.0000000   0.0016512   0.0021083   0.0000000   0.0018349
           HY12          0.0000000  -0.0023332   0.0016221   0.0000000   0.0002136
           HZ12          0.0001546   0.0000000   0.0000000  -0.0038660   0.0000000
           CX13          0.0000000  -0.0009641   0.0002403   0.0000000  -0.0008746
           CY13          0.0000000   0.0013181   0.0000955   0.0000000  -0.0020911
           CZ13         -0.0525078   0.0000000   0.0000000   0.0000838   0.0000000
           CX14          0.0000000  -0.3919915   0.2546735   0.0000000  -0.0003628
           CY14          0.0000000   0.2318730  -0.3684836   0.0000000  -0.0003054
           CZ14          0.0000838   0.0000000   0.0000000  -0.0525078   0.0000000
           HX15          0.0000000   0.0000484   0.0000230   0.0000000   0.0000079
           HY15          0.0000000   0.0000162   0.0000272   0.0000000   0.0000446
           HZ15         -0.0446018   0.0000000   0.0000000   0.0000265   0.0000000
           HX16          0.0000000  -0.0838761  -0.0763803   0.0000000  -0.0000073
           HY16          0.0000000  -0.0734565  -0.3826003   0.0000000   0.0000258
           HZ16          0.0000265   0.0000000   0.0000000  -0.0446018   0.0000000
           HX17          0.0000000  -0.0158896  -0.0124824   0.0000000  -0.0000602
           HY17          0.0000000   0.0286044   0.0099670   0.0000000   0.0001106
           HZ17         -0.0000085   0.0000000   0.0000000   0.0056447   0.0000000
           HX18          0.0000000  -0.0000505  -0.0001005   0.0000000   0.0001218
           HY18          0.0000000  -0.0000377  -0.0000751   0.0000000   0.0002300
           HZ18          0.0056447   0.0000000   0.0000000  -0.0000085   0.0000000
           HX19          0.0000000   0.0112659   0.0295450   0.0000000   0.0000098
           HY19          0.0000000  -0.0079283  -0.0133614   0.0000000  -0.0000118
           HZ19          0.0000695   0.0000000   0.0000000   0.0047274   0.0000000
           HX20          0.0000000  -0.0000278   0.0002026   0.0000000  -0.0016177
           HY20          0.0000000   0.0001018   0.0001154   0.0000000  -0.0002472
           HZ20          0.0047274   0.0000000   0.0000000   0.0000695   0.0000000
                             HY9         HZ9         HX10        HY10        HZ10    
           HY9           0.2803582
           HZ9           0.0000000   0.0276461
           HX10          0.0002366   0.0000000   0.2061818
           HY10         -0.0000543   0.0000000  -0.1734708   0.2803582
           HZ10          0.0000000  -0.0011818   0.0000000   0.0000000   0.0276461
           HX11          0.0011288   0.0000000   0.0018349  -0.0000200   0.0000000
           HY11         -0.0007998   0.0000000   0.0002136   0.0011893   0.0000000
           HZ11          0.0000000   0.0001465   0.0000000   0.0000000  -0.0051138
           HX12         -0.0000200   0.0000000   0.0006148   0.0011288   0.0000000
           HY12          0.0011893   0.0000000  -0.0006807  -0.0007998   0.0000000
           HZ12          0.0000000  -0.0051138   0.0000000   0.0000000   0.0001465
           CX13          0.0007539   0.0000000  -0.0003628  -0.0001313   0.0000000
           CY13         -0.0000219   0.0000000  -0.0003054  -0.0000645   0.0000000
           CZ13          0.0000000   0.0003141   0.0000000   0.0000000  -0.0001122
           CX14         -0.0001313   0.0000000  -0.0008746   0.0007539   0.0000000
           CY14         -0.0000645   0.0000000  -0.0020911  -0.0000219   0.0000000
           CZ14          0.0000000  -0.0001122   0.0000000   0.0000000   0.0003141
           HX15          0.0000085   0.0000000  -0.0000073   0.0000091   0.0000000
           HY15          0.0001237   0.0000000   0.0000258   0.0000111   0.0000000
           HZ15          0.0000000  -0.0000624   0.0000000   0.0000000   0.0000126
           HX16          0.0000091   0.0000000   0.0000079   0.0000085   0.0000000
           HY16          0.0000111   0.0000000   0.0000446   0.0001237   0.0000000
           HZ16          0.0000000   0.0000126   0.0000000   0.0000000  -0.0000624
           HX17         -0.0000386   0.0000000   0.0001218   0.0000275   0.0000000
           HY17          0.0000375   0.0000000   0.0002300   0.0003268   0.0000000
           HZ17          0.0000000   0.0000076   0.0000000   0.0000000   0.0001384
           HX18          0.0000275   0.0000000  -0.0000602  -0.0000386   0.0000000
           HY18          0.0003268   0.0000000   0.0001106   0.0000375   0.0000000
           HZ18          0.0000000   0.0001384   0.0000000   0.0000000   0.0000076
           HX19          0.0000191   0.0000000  -0.0016177  -0.0012478   0.0000000
           HY19         -0.0000033   0.0000000  -0.0002472   0.0006764   0.0000000
           HZ19          0.0000000  -0.0000132   0.0000000   0.0000000   0.0002590
           HX20         -0.0012478   0.0000000   0.0000098   0.0000191   0.0000000
           HY20          0.0006764   0.0000000  -0.0000118  -0.0000033   0.0000000
           HZ20          0.0000000   0.0002590   0.0000000   0.0000000  -0.0000132
                             HX11        HY11        HZ11        HX12        HY12    
           HX11          0.1077635
           HY11          0.1145617   0.3756366
           HZ11          0.0000000   0.0000000   0.0283841
           HX12          0.0001175  -0.0001684   0.0000000   0.1077635
           HY12         -0.0001684  -0.0001824   0.0000000   0.1145617   0.3756366
           HZ12          0.0000000   0.0000000  -0.0010677   0.0000000   0.0000000
           CX13         -0.0000815  -0.0000974   0.0000000   0.0000748  -0.0000158
           CY13         -0.0003097   0.0001551   0.0000000  -0.0000040   0.0000136
           CZ13          0.0000000   0.0000000   0.0001201   0.0000000   0.0000000
           CX14          0.0000748  -0.0000158   0.0000000  -0.0000815  -0.0000974
           CY14         -0.0000040   0.0000136   0.0000000  -0.0003097   0.0001551
           CZ14          0.0000000   0.0000000   0.0000303   0.0000000   0.0000000
           HX15         -0.0001131   0.0007893   0.0000000  -0.0004624   0.0000115
           HY15         -0.0004733   0.0001557   0.0000000  -0.0000440   0.0000397
           HZ15          0.0000000   0.0000000  -0.0000363   0.0000000   0.0000000
           HX16         -0.0004624   0.0000115   0.0000000  -0.0001131   0.0007893
           HY16         -0.0000440   0.0000397   0.0000000  -0.0004733   0.0001557
           HZ16          0.0000000   0.0000000  -0.0002167   0.0000000   0.0000000
           HX17         -0.0000155   0.0000104   0.0000000  -0.0000239   0.0000881
           HY17          0.0000492   0.0000060   0.0000000  -0.0000049   0.0000317
           HZ17          0.0000000   0.0000000   0.0000060   0.0000000   0.0000000
           HX18         -0.0000239   0.0000881   0.0000000  -0.0000155   0.0000104
           HY18         -0.0000049   0.0000317   0.0000000   0.0000492   0.0000060
           HZ18          0.0000000   0.0000000   0.0003252   0.0000000   0.0000000
           HX19         -0.0000489  -0.0000140   0.0000000   0.0000989  -0.0000817
           HY19         -0.0000192   0.0000020   0.0000000  -0.0000324  -0.0000365
           HZ19          0.0000000   0.0000000   0.0000195   0.0000000   0.0000000
           HX20          0.0000989  -0.0000817   0.0000000  -0.0000489  -0.0000140
           HY20         -0.0000324  -0.0000365   0.0000000  -0.0000192   0.0000020
           HZ20          0.0000000   0.0000000  -0.0000939   0.0000000   0.0000000
                             HZ12        CX13        CY13        CZ13        CX14    
           HZ12          0.0283841
           CX13          0.0000000   0.8948826
           CY13          0.0000000  -0.1077091   0.8708765
           CZ13          0.0000303   0.0000000   0.0000000   0.1136935
           CX14          0.0000000   0.0001512  -0.0007892   0.0000000   0.8948826
           CY14          0.0000000  -0.0007892   0.0004591   0.0000000  -0.1077091
           CZ14          0.0001201   0.0000000   0.0000000   0.0000510   0.0000000
           HX15          0.0000000   0.0081829   0.0322780   0.0000000  -0.0000695
           HY15          0.0000000  -0.0095355  -0.0155081   0.0000000  -0.0000439
           HZ15         -0.0002167   0.0000000   0.0000000   0.0056975   0.0000000
           HX16          0.0000000  -0.0000695  -0.0001920   0.0000000   0.0081829
           HY16          0.0000000  -0.0000439  -0.0000254   0.0000000  -0.0095355
           HZ16         -0.0000363   0.0000000   0.0000000  -0.0000047   0.0000000
           HX17          0.0000000   0.0000485   0.0000405   0.0000000  -0.3800550
           HY17          0.0000000   0.0000105   0.0000336   0.0000000  -0.1029763
           HZ17          0.0003252   0.0000000   0.0000000  -0.0000168   0.0000000
           HX18          0.0000000  -0.3800550  -0.0997184   0.0000000   0.0000485
           HY18          0.0000000  -0.1029763  -0.1011233   0.0000000   0.0000105
           HZ18          0.0000060   0.0000000   0.0000000  -0.0353898   0.0000000
           HX19          0.0000000   0.0000244   0.0003117   0.0000000  -0.0839741
           HY19          0.0000000  -0.0001356  -0.0001560   0.0000000  -0.0565321
           HZ19         -0.0000939   0.0000000   0.0000000  -0.0000191   0.0000000
           HX20          0.0000000  -0.0839741  -0.0580814   0.0000000   0.0000244
           HY20          0.0000000  -0.0565321  -0.4009869   0.0000000  -0.0001356
           HZ20          0.0000195   0.0000000   0.0000000  -0.0385655   0.0000000
                             CY14        CZ14        HX15        HY15        HZ15    
           CY14          0.8708765
           CZ14          0.0000000   0.1136935
           HX15         -0.0001920   0.0000000   0.0879760
           HY15         -0.0000254   0.0000000   0.0749553   0.3968647
           HZ15          0.0000000  -0.0000047   0.0000000   0.0000000   0.0304604
           HX16          0.0322780   0.0000000   0.0000112  -0.0000085   0.0000000
           HY16         -0.0155081   0.0000000  -0.0000085  -0.0000093   0.0000000
           HZ16          0.0000000   0.0056975   0.0000000   0.0000000   0.0000149
           HX17         -0.0997184   0.0000000   0.0000106   0.0000029   0.0000000
           HY17         -0.1011233   0.0000000   0.0000037  -0.0000006   0.0000000
           HZ17          0.0000000  -0.0353898   0.0000000   0.0000000   0.0000043
           HX18          0.0000405   0.0000000   0.0016473  -0.0001462   0.0000000
           HY18          0.0000336   0.0000000  -0.0000181   0.0019415   0.0000000
           HZ18          0.0000000  -0.0000168   0.0000000   0.0000000  -0.0092939
           HX19         -0.0580814   0.0000000  -0.0000204   0.0000210   0.0000000
           HY19         -0.4009869   0.0000000  -0.0000345  -0.0000153   0.0000000
           HZ19          0.0000000  -0.0385655   0.0000000   0.0000000   0.0000010
           HX20          0.0003117   0.0000000  -0.0037166   0.0020868   0.0000000
           HY20         -0.0001560   0.0000000   0.0022357  -0.0005450   0.0000000
           HZ20          0.0000000  -0.0000191   0.0000000   0.0000000   0.0140513
                             HX16        HY16        HZ16        HX17        HY17    
           HX16          0.0879760
           HY16          0.0749553   0.3968647
           HZ16          0.0000000   0.0000000   0.0304604
           HX17          0.0016473  -0.0001462   0.0000000   0.3924173
           HY17         -0.0000181   0.0019415   0.0000000   0.1019583   0.0932177
           HZ17          0.0000000   0.0000000  -0.0092939   0.0000000   0.0000000
           HX18          0.0000106   0.0000029   0.0000000  -0.0000258  -0.0000199
           HY18          0.0000037  -0.0000006   0.0000000  -0.0000199  -0.0000187
           HZ18          0.0000000   0.0000000   0.0000043   0.0000000   0.0000000
           HX19         -0.0037166   0.0020868   0.0000000   0.0019007  -0.0299890
           HY19          0.0022357  -0.0005450   0.0000000   0.0074993  -0.0012717
           HZ19          0.0000000   0.0000000   0.0140513   0.0000000   0.0000000
           HX20         -0.0000204   0.0000210   0.0000000   0.0000058   0.0000319
           HY20         -0.0000345  -0.0000153   0.0000000   0.0000334   0.0000243
           HZ20          0.0000000   0.0000000   0.0000010   0.0000000   0.0000000
                             HZ17        HX18        HY18        HZ18        HX19    
           HZ17          0.0248666
           HX18          0.0000000   0.3924173
           HY18          0.0000000   0.1019583   0.0932177
           HZ18          0.0000270   0.0000000   0.0000000   0.0248666
           HX19          0.0000000   0.0000058   0.0000319   0.0000000   0.0752615
           HY19          0.0000000   0.0000334   0.0000243   0.0000000   0.0578151
           HZ19          0.0022695   0.0000000   0.0000000  -0.0000221   0.0000000
           HX20          0.0000000   0.0019007  -0.0299890   0.0000000   0.0000183
           HY20          0.0000000   0.0074993  -0.0012717   0.0000000   0.0000195
           HZ20         -0.0000221   0.0000000   0.0000000   0.0022695   0.0000000
                             HY19        HZ19        HX20        HY20        HZ20    
           HY19          0.4146857
           HZ19          0.0000000   0.0248719
           HX20          0.0000195   0.0000000   0.0752615
           HY20         -0.0000733   0.0000000   0.0578151   0.4146857
           HZ20          0.0000000   0.0000093   0.0000000   0.0000000   0.0248719


 Atomic Masses
   1- 10   12.011000   12.011000   12.011000   12.011000   12.011000   12.011000   12.011000   12.011000    1.007940    1.007940
  11- 20    1.007940    1.007940   12.011000   12.011000    1.007940    1.007940    1.007940    1.007940    1.007940    1.007940

 Mass weighted Second Derivative Matrix
                             CX1         CY1         CZ1         CX2         CY2     
           CX1           0.0587600
           CY1           0.0003249   0.0603887
           CZ1           0.0000000   0.0000000   0.0131434
           CX2          -0.0173974   0.0044042   0.0000000   0.0631268
           CY2           0.0114825  -0.0220433   0.0000000   0.0046539   0.0684380
           CZ2           0.0000000   0.0000000  -0.0055427   0.0000000   0.0000000
           CX3          -0.0045748   0.0066924   0.0000000  -0.0314826  -0.0073747
           CY3           0.0008514   0.0050894   0.0000000   0.0011709  -0.0128169
           CZ3           0.0000000   0.0000000   0.0005836   0.0000000   0.0000000
           CX4           0.0008663   0.0013135   0.0000000  -0.0013291  -0.0030796
           CY4           0.0013135  -0.0069881   0.0000000  -0.0090554   0.0017586
           CZ4           0.0000000   0.0000000  -0.0007454   0.0000000   0.0000000
           CX5          -0.0013291  -0.0090554   0.0000000  -0.0063865   0.0022590
           CY5          -0.0030796   0.0017586   0.0000000   0.0022590  -0.0006882
           CZ5           0.0000000   0.0000000   0.0005762   0.0000000   0.0000000
           CX6          -0.0129044  -0.0013901   0.0000000   0.0062389  -0.0004937
           CY6          -0.0081270  -0.0265658   0.0000000   0.0044261  -0.0049915
           CZ6           0.0000000   0.0000000  -0.0056154   0.0000000   0.0000000
           CX7          -0.0197628  -0.0022302   0.0000000  -0.0037180   0.0005345
           CY7          -0.0046879  -0.0102895   0.0000000   0.0026432   0.0005373
           CZ7           0.0000000   0.0000000  -0.0052751   0.0000000   0.0000000
           CX8          -0.0005060  -0.0000238   0.0000000   0.0008429  -0.0001392
           CY8           0.0001282  -0.0000205   0.0000000  -0.0000736  -0.0005351
           CZ8           0.0000000   0.0000000  -0.0000833   0.0000000   0.0000000
           HX9           0.0036685  -0.0040492   0.0000000  -0.0004403  -0.0007411
           HY9           0.0064107  -0.0042603   0.0000000  -0.0011764  -0.0010623
           HZ9           0.0000000   0.0000000   0.0007926   0.0000000   0.0000000
           HX10         -0.0011555  -0.0009656   0.0000000  -0.0039081   0.0081893
           HY10         -0.0005212   0.0000476   0.0000000  -0.0032334   0.0025861
           HZ10          0.0000000   0.0000000   0.0025406   0.0000000   0.0000000
           HX11          0.0028725   0.0067557   0.0000000  -0.0305526  -0.0316905
           HY11         -0.0038586  -0.0042279   0.0000000  -0.0316312  -0.1050635
           HZ11          0.0000000   0.0000000   0.0007049   0.0000000   0.0000000
           HX12         -0.0015079   0.0004329   0.0000000  -0.0001448   0.0001759
           HY12          0.0000112   0.0003494   0.0000000   0.0002244   0.0003048
           HZ12          0.0000000   0.0000000   0.0025296   0.0000000   0.0000000
           CX13         -0.0040275   0.0018055   0.0000000   0.0002326  -0.0005821
           CY13          0.0010817   0.0014432   0.0000000  -0.0005887   0.0000848
           CZ13          0.0000000   0.0000000   0.0004555   0.0000000   0.0000000
           CX14          0.0001543   0.0000669   0.0000000  -0.0001375   0.0001163
           CY14         -0.0001631   0.0000063   0.0000000   0.0002438  -0.0000535
           CZ14          0.0000000   0.0000000  -0.0000038   0.0000000   0.0000000
           HX15         -0.0019386  -0.0091372   0.0000000   0.0005203  -0.0006098
           HY15          0.0010584  -0.0007251   0.0000000   0.0007420   0.0004294
           HZ15          0.0000000   0.0000000   0.0006746   0.0000000   0.0000000
           HX16          0.0000490   0.0000060   0.0000000   0.0000908  -0.0004951
           HY16          0.0000172   0.0000465   0.0000000   0.0000523  -0.0000481
           HZ16          0.0000000   0.0000000   0.0000336   0.0000000   0.0000000
           HX17          0.0000350   0.0000472   0.0000000   0.0000035  -0.0000665
           HY17         -0.0000189   0.0000144   0.0000000   0.0000009   0.0000564
           HZ17          0.0000000   0.0000000   0.0000437   0.0000000   0.0000000
           HX18         -0.0000116   0.0007952   0.0000000  -0.0001150  -0.0001423
           HY18          0.0003616  -0.0009609   0.0000000   0.0002653   0.0002290
           HZ18          0.0000000   0.0000000   0.0037156   0.0000000   0.0000000
           HX19         -0.0000172   0.0000290   0.0000000   0.0000232  -0.0000576
           HY19         -0.0000334  -0.0000352   0.0000000  -0.0000006   0.0001053
           HZ19          0.0000000   0.0000000  -0.0000219   0.0000000   0.0000000
           HX20          0.0004956  -0.0004998   0.0000000   0.0000369  -0.0000278
           HY20         -0.0004053   0.0001581   0.0000000  -0.0000517  -0.0000282
           HZ20          0.0000000   0.0000000  -0.0023593   0.0000000   0.0000000
                             CZ2         CX3         CY3         CZ3         CX4     
           CZ2           0.0117557
           CX3           0.0000000   0.0663294
           CY3           0.0000000  -0.0055043   0.0653173
           CZ3          -0.0051951   0.0000000   0.0000000   0.0117471
           CX4           0.0000000  -0.0129044  -0.0081270   0.0000000   0.0587600
           CY4           0.0000000  -0.0013901  -0.0265658   0.0000000   0.0003249
           CZ4           0.0005762   0.0000000   0.0000000  -0.0056154   0.0000000
           CX5           0.0000000   0.0062389   0.0044261   0.0000000  -0.0173974
           CY5           0.0000000  -0.0004937  -0.0049915   0.0000000   0.0114825
           CZ5          -0.0005950   0.0000000   0.0000000   0.0005455   0.0000000
           CX6           0.0000000  -0.0042449  -0.0035269   0.0000000  -0.0045748
           CY6           0.0000000  -0.0035269  -0.0026507   0.0000000   0.0008514
           CZ6           0.0005455   0.0000000   0.0000000  -0.0005323   0.0000000
           CX7           0.0000000   0.0005729   0.0005201   0.0000000  -0.0005060
           CY7           0.0000000   0.0000771  -0.0004126   0.0000000   0.0001282
           CZ7           0.0003367   0.0000000   0.0000000   0.0006202   0.0000000
           CX8           0.0000000  -0.0021015  -0.0017674   0.0000000  -0.0197628
           CY8           0.0000000  -0.0027837   0.0001054   0.0000000  -0.0046879
           CZ8           0.0005694   0.0000000   0.0000000   0.0002281   0.0000000
           HX9           0.0000000   0.0000164  -0.0002776   0.0000000  -0.0011555
           HY9           0.0000000  -0.0002969   0.0001296   0.0000000  -0.0005212
           HZ9           0.0022115   0.0000000   0.0000000  -0.0002744   0.0000000
           HX10          0.0000000  -0.0572334   0.0476872   0.0000000   0.0036685
           HY10          0.0000000   0.0480344  -0.0789327   0.0000000   0.0064107
           HZ10          0.0010713   0.0000000   0.0000000  -0.0115622   0.0000000
           HX11          0.0000000  -0.0016971  -0.0095094   0.0000000  -0.0015079
           HY11          0.0000000   0.0017994   0.0004754   0.0000000   0.0000112
           HZ11         -0.0114570   0.0000000   0.0000000   0.0009589   0.0000000
           HX12          0.0000000  -0.0010470   0.0007127   0.0000000   0.0028725
           HY12          0.0000000   0.0011596  -0.0004576   0.0000000  -0.0038586
           HZ12         -0.0002600   0.0000000   0.0000000   0.0021228   0.0000000
           CX13          0.0000000  -0.0002724  -0.0000785   0.0000000   0.0001543
           CY13          0.0000000   0.0001274   0.0001631   0.0000000  -0.0001631
           CZ13          0.0001239   0.0000000   0.0000000  -0.0000048   0.0000000
           CX14          0.0000000   0.0003046   0.0005275   0.0000000  -0.0040275
           CY14          0.0000000  -0.0004199  -0.0004171   0.0000000   0.0010817
           CZ14         -0.0000426   0.0000000   0.0000000   0.0000235   0.0000000
           HX15          0.0000000   0.0000353   0.0000286   0.0000000   0.0000490
           HY15          0.0000000  -0.0000118  -0.0000347   0.0000000   0.0000172
           HZ15         -0.0002888   0.0000000   0.0000000  -0.0000216   0.0000000
           HX16          0.0000000  -0.0015214   0.0005275   0.0000000  -0.0019386
           HY16          0.0000000   0.0000260   0.0001998   0.0000000   0.0010584
           HZ16          0.0000175   0.0000000   0.0000000   0.0007191   0.0000000
           HX17          0.0000000   0.0001358   0.0000628   0.0000000  -0.0000116
           HY17          0.0000000  -0.0000372  -0.0001537   0.0000000   0.0003616
           HZ17         -0.0000960   0.0000000   0.0000000  -0.0001241   0.0000000
           HX18          0.0000000  -0.0000567   0.0001214   0.0000000   0.0000350
           HY18          0.0000000   0.0000168  -0.0000751   0.0000000  -0.0000189
           HZ18          0.0000082   0.0000000   0.0000000  -0.0002590   0.0000000
           HX19          0.0000000  -0.0003414   0.0003899   0.0000000   0.0004956
           HY19          0.0000000  -0.0003062   0.0001291   0.0000000  -0.0004053
           HZ19          0.0000528   0.0000000   0.0000000   0.0000869   0.0000000
           HX20          0.0000000   0.0000387  -0.0000172   0.0000000  -0.0000172
           HY20          0.0000000   0.0000028  -0.0000574   0.0000000  -0.0000334
           HZ20         -0.0000003   0.0000000   0.0000000   0.0000676   0.0000000
                             CY4         CZ4         CX5         CY5         CZ5     
           CY4           0.0603887
           CZ4           0.0000000   0.0131434
           CX5           0.0044042   0.0000000   0.0631268
           CY5          -0.0220433   0.0000000   0.0046539   0.0684380
           CZ5           0.0000000  -0.0055427   0.0000000   0.0000000   0.0117557
           CX6           0.0066924   0.0000000  -0.0314826  -0.0073747   0.0000000
           CY6           0.0050894   0.0000000   0.0011709  -0.0128169   0.0000000
           CZ6           0.0000000   0.0005836   0.0000000   0.0000000  -0.0051951
           CX7          -0.0000238   0.0000000   0.0008429  -0.0001392   0.0000000
           CY7          -0.0000205   0.0000000  -0.0000736  -0.0005351   0.0000000
           CZ7           0.0000000  -0.0000833   0.0000000   0.0000000   0.0005694
           CX8          -0.0022302   0.0000000  -0.0037180   0.0005345   0.0000000
           CY8          -0.0102895   0.0000000   0.0026432   0.0005373   0.0000000
           CZ8           0.0000000  -0.0052751   0.0000000   0.0000000   0.0003367
           HX9          -0.0009656   0.0000000  -0.0039081   0.0081893   0.0000000
           HY9           0.0000476   0.0000000  -0.0032334   0.0025861   0.0000000
           HZ9           0.0000000   0.0025406   0.0000000   0.0000000   0.0010713
           HX10         -0.0040492   0.0000000  -0.0004403  -0.0007411   0.0000000
           HY10         -0.0042603   0.0000000  -0.0011764  -0.0010623   0.0000000
           HZ10          0.0000000   0.0007926   0.0000000   0.0000000   0.0022115
           HX11          0.0004329   0.0000000  -0.0001448   0.0001759   0.0000000
           HY11          0.0003494   0.0000000   0.0002244   0.0003048   0.0000000
           HZ11          0.0000000   0.0025296   0.0000000   0.0000000  -0.0002600
           HX12          0.0067557   0.0000000  -0.0305526  -0.0316905   0.0000000
           HY12         -0.0042279   0.0000000  -0.0316312  -0.1050635   0.0000000
           HZ12          0.0000000   0.0007049   0.0000000   0.0000000  -0.0114570
           CX13          0.0000669   0.0000000  -0.0001375   0.0001163   0.0000000
           CY13          0.0000063   0.0000000   0.0002438  -0.0000535   0.0000000
           CZ13          0.0000000  -0.0000038   0.0000000   0.0000000  -0.0000426
           CX14          0.0018055   0.0000000   0.0002326  -0.0005821   0.0000000
           CY14          0.0014432   0.0000000  -0.0005887   0.0000848   0.0000000
           CZ14          0.0000000   0.0004555   0.0000000   0.0000000   0.0001239
           HX15          0.0000060   0.0000000   0.0000908  -0.0004951   0.0000000
           HY15          0.0000465   0.0000000   0.0000523  -0.0000481   0.0000000
           HZ15          0.0000000   0.0000336   0.0000000   0.0000000   0.0000175
           HX16         -0.0091372   0.0000000   0.0005203  -0.0006098   0.0000000
           HY16         -0.0007251   0.0000000   0.0007420   0.0004294   0.0000000
           HZ16          0.0000000   0.0006746   0.0000000   0.0000000  -0.0002888
           HX17          0.0007952   0.0000000  -0.0001150  -0.0001423   0.0000000
           HY17         -0.0009609   0.0000000   0.0002653   0.0002290   0.0000000
           HZ17          0.0000000   0.0037156   0.0000000   0.0000000   0.0000082
           HX18          0.0000472   0.0000000   0.0000035  -0.0000665   0.0000000
           HY18          0.0000144   0.0000000   0.0000009   0.0000564   0.0000000
           HZ18          0.0000000   0.0000437   0.0000000   0.0000000  -0.0000960
           HX19         -0.0004998   0.0000000   0.0000369  -0.0000278   0.0000000
           HY19          0.0001581   0.0000000  -0.0000517  -0.0000282   0.0000000
           HZ19          0.0000000  -0.0023593   0.0000000   0.0000000  -0.0000003
           HX20          0.0000290   0.0000000   0.0000232  -0.0000576   0.0000000
           HY20         -0.0000352   0.0000000  -0.0000006   0.0001053   0.0000000
           HZ20          0.0000000  -0.0000219   0.0000000   0.0000000   0.0000528
                             CX6         CY6         CZ6         CX7         CY7     
           CX6           0.0663294
           CY6          -0.0055043   0.0653173
           CZ6           0.0000000   0.0000000   0.0117471
           CX7          -0.0021015  -0.0017674   0.0000000   0.0643661
           CY7          -0.0027837   0.0001054   0.0000000  -0.0117893   0.0731392
           CZ7           0.0000000   0.0000000   0.0002281   0.0000000   0.0000000
           CX8           0.0005729   0.0005201   0.0000000   0.0002701  -0.0000677
           CY8           0.0000771  -0.0004126   0.0000000  -0.0000677  -0.0000125
           CZ8           0.0000000   0.0000000   0.0006202   0.0000000   0.0000000
           HX9          -0.0572334   0.0476872   0.0000000  -0.0000137   0.0003282
           HY9           0.0480344  -0.0789327   0.0000000   0.0004896   0.0003695
           HZ9           0.0000000   0.0000000  -0.0115622   0.0000000   0.0000000
           HX10          0.0000164  -0.0002776   0.0000000  -0.0000923   0.0003963
           HY10         -0.0002969   0.0001296   0.0000000  -0.0000649   0.0001379
           HZ10          0.0000000   0.0000000  -0.0002744   0.0000000   0.0000000
           HX11         -0.0010470   0.0007127   0.0000000   0.0004746   0.0006059
           HY11          0.0011596  -0.0004576   0.0000000  -0.0006706   0.0004662
           HZ11          0.0000000   0.0000000   0.0021228   0.0000000   0.0000000
           HX12         -0.0016971  -0.0095094   0.0000000   0.0000571  -0.0004380
           HY12          0.0017994   0.0004754   0.0000000   0.0000245   0.0000285
           HZ12          0.0000000   0.0000000   0.0009589   0.0000000   0.0000000
           CX13          0.0003046   0.0005275   0.0000000  -0.0326360   0.0212034
           CY13         -0.0004199  -0.0004171   0.0000000   0.0193051  -0.0306788
           CZ13          0.0000000   0.0000000   0.0000235   0.0000000   0.0000000
           CX14         -0.0002724  -0.0000785   0.0000000  -0.0000803   0.0000200
           CY14          0.0001274   0.0001631   0.0000000   0.0001097   0.0000080
           CZ14          0.0000000   0.0000000  -0.0000048   0.0000000   0.0000000
           HX15         -0.0015214   0.0005275   0.0000000  -0.0241063  -0.0219520
           HY15          0.0000260   0.0001998   0.0000000  -0.0211117  -0.1099609
           HZ15          0.0000000   0.0000000   0.0007191   0.0000000   0.0000000
           HX16          0.0000353   0.0000286   0.0000000   0.0000139   0.0000066
           HY16         -0.0000118  -0.0000347   0.0000000   0.0000047   0.0000078
           HZ16          0.0000000   0.0000000  -0.0000216   0.0000000   0.0000000
           HX17         -0.0000567   0.0001214   0.0000000  -0.0000145  -0.0000289
           HY17          0.0000168  -0.0000751   0.0000000  -0.0000108  -0.0000216
           HZ17          0.0000000   0.0000000  -0.0002590   0.0000000   0.0000000
           HX18          0.0001358   0.0000628   0.0000000  -0.0045668  -0.0035875
           HY18         -0.0000372  -0.0001537   0.0000000   0.0082210   0.0028645
           HZ18          0.0000000   0.0000000  -0.0001241   0.0000000   0.0000000
           HX19          0.0000387  -0.0000172   0.0000000  -0.0000080   0.0000582
           HY19          0.0000028  -0.0000574   0.0000000   0.0000293   0.0000332
           HZ19          0.0000000   0.0000000   0.0000676   0.0000000   0.0000000
           HX20         -0.0003414   0.0003899   0.0000000   0.0032379   0.0084914
           HY20         -0.0003062   0.0001291   0.0000000  -0.0022786  -0.0038401
           HZ20          0.0000000   0.0000000   0.0000869   0.0000000   0.0000000
                             CZ7         CX8         CY8         CZ8         HX9     
           CZ7           0.0115319
           CX8           0.0000000   0.0643661
           CY8           0.0000000  -0.0117893   0.0731392
           CZ8          -0.0000890   0.0000000   0.0000000   0.0115319
           HX9           0.0000000  -0.0000923   0.0003963   0.0000000   0.2045576
           HY9           0.0000000  -0.0000649   0.0001379   0.0000000  -0.1721043
           HZ9          -0.0011269   0.0000000   0.0000000   0.0000129   0.0000000
           HX10          0.0000000  -0.0000137   0.0003282   0.0000000  -0.0000113
           HY10          0.0000000   0.0004896   0.0003695   0.0000000   0.0002347
           HZ10          0.0000129   0.0000000   0.0000000  -0.0011269   0.0000000
           HX11          0.0000000   0.0000571  -0.0004380   0.0000000   0.0006100
           HY11          0.0000000   0.0000245   0.0000285   0.0000000  -0.0006753
           HZ11         -0.0011111   0.0000000   0.0000000   0.0000444   0.0000000
           HX12          0.0000000   0.0004746   0.0006059   0.0000000   0.0018205
           HY12          0.0000000  -0.0006706   0.0004662   0.0000000   0.0002119
           HZ12          0.0000444   0.0000000   0.0000000  -0.0011111   0.0000000
           CX13          0.0000000  -0.0000803   0.0000200   0.0000000  -0.0002514
           CY13          0.0000000   0.0001097   0.0000080   0.0000000  -0.0006010
           CZ13         -0.0043716   0.0000000   0.0000000   0.0000070   0.0000000
           CX14          0.0000000  -0.0326360   0.0212034   0.0000000  -0.0001043
           CY14          0.0000000   0.0193051  -0.0306788   0.0000000  -0.0000878
           CZ14          0.0000070   0.0000000   0.0000000  -0.0043716   0.0000000
           HX15          0.0000000   0.0000139   0.0000066   0.0000000   0.0000079
           HY15          0.0000000   0.0000047   0.0000078   0.0000000   0.0000442
           HZ15         -0.0128187   0.0000000   0.0000000   0.0000076   0.0000000
           HX16          0.0000000  -0.0241063  -0.0219520   0.0000000  -0.0000072
           HY16          0.0000000  -0.0211117  -0.1099609   0.0000000   0.0000256
           HZ16          0.0000076   0.0000000   0.0000000  -0.0128187   0.0000000
           HX17          0.0000000  -0.0045668  -0.0035875   0.0000000  -0.0000597
           HY17          0.0000000   0.0082210   0.0028645   0.0000000   0.0001097
           HZ17         -0.0000024   0.0000000   0.0000000   0.0016223   0.0000000
           HX18          0.0000000  -0.0000145  -0.0000289   0.0000000   0.0001208
           HY18          0.0000000  -0.0000108  -0.0000216   0.0000000   0.0002282
           HZ18          0.0016223   0.0000000   0.0000000  -0.0000024   0.0000000
           HX19          0.0000000   0.0032379   0.0084914   0.0000000   0.0000097
           HY19          0.0000000  -0.0022786  -0.0038401   0.0000000  -0.0000117
           HZ19          0.0000200   0.0000000   0.0000000   0.0013587   0.0000000
           HX20          0.0000000  -0.0000080   0.0000582   0.0000000  -0.0016049
           HY20          0.0000000   0.0000293   0.0000332   0.0000000  -0.0002453
           HZ20          0.0013587   0.0000000   0.0000000   0.0000200   0.0000000
                             HY9         HZ9         HX10        HY10        HZ10    
           HY9           0.2781496
           HZ9           0.0000000   0.0274283
           HX10          0.0002347   0.0000000   0.2045576
           HY10         -0.0000538   0.0000000  -0.1721043   0.2781496
           HZ10          0.0000000  -0.0011725   0.0000000   0.0000000   0.0274283
           HX11          0.0011199   0.0000000   0.0018205  -0.0000198   0.0000000
           HY11         -0.0007935   0.0000000   0.0002119   0.0011799   0.0000000
           HZ11          0.0000000   0.0001453   0.0000000   0.0000000  -0.0050735
           HX12         -0.0000198   0.0000000   0.0006100   0.0011199   0.0000000
           HY12          0.0011799   0.0000000  -0.0006753  -0.0007935   0.0000000
           HZ12          0.0000000  -0.0050735   0.0000000   0.0000000   0.0001453
           CX13          0.0002167   0.0000000  -0.0001043  -0.0000377   0.0000000
           CY13         -0.0000063   0.0000000  -0.0000878  -0.0000185   0.0000000
           CZ13          0.0000000   0.0000903   0.0000000   0.0000000  -0.0000322
           CX14         -0.0000377   0.0000000  -0.0002514   0.0002167   0.0000000
           CY14         -0.0000185   0.0000000  -0.0006010  -0.0000063   0.0000000
           CZ14          0.0000000  -0.0000322   0.0000000   0.0000000   0.0000903
           HX15          0.0000085   0.0000000  -0.0000072   0.0000090   0.0000000
           HY15          0.0001228   0.0000000   0.0000256   0.0000110   0.0000000
           HZ15          0.0000000  -0.0000619   0.0000000   0.0000000   0.0000125
           HX16          0.0000090   0.0000000   0.0000079   0.0000085   0.0000000
           HY16          0.0000110   0.0000000   0.0000442   0.0001228   0.0000000
           HZ16          0.0000000   0.0000125   0.0000000   0.0000000  -0.0000619
           HX17         -0.0000383   0.0000000   0.0001208   0.0000273   0.0000000
           HY17          0.0000372   0.0000000   0.0002282   0.0003242   0.0000000
           HZ17          0.0000000   0.0000075   0.0000000   0.0000000   0.0001374
           HX18          0.0000273   0.0000000  -0.0000597  -0.0000383   0.0000000
           HY18          0.0003242   0.0000000   0.0001097   0.0000372   0.0000000
           HZ18          0.0000000   0.0001374   0.0000000   0.0000000   0.0000075
           HX19          0.0000189   0.0000000  -0.0016049  -0.0012380   0.0000000
           HY19         -0.0000033   0.0000000  -0.0002453   0.0006711   0.0000000
           HZ19          0.0000000  -0.0000131   0.0000000   0.0000000   0.0002569
           HX20         -0.0012380   0.0000000   0.0000097   0.0000189   0.0000000
           HY20          0.0006711   0.0000000  -0.0000117  -0.0000033   0.0000000
           HZ20          0.0000000   0.0002569   0.0000000   0.0000000  -0.0000131
                             HX11        HY11        HZ11        HX12        HY12    
           HX11          0.1069146
           HY11          0.1136593   0.3726776
           HZ11          0.0000000   0.0000000   0.0281605
           HX12          0.0001165  -0.0001671   0.0000000   0.1069146
           HY12         -0.0001671  -0.0001810   0.0000000   0.1136593   0.3726776
           HZ12          0.0000000   0.0000000  -0.0010593   0.0000000   0.0000000
           CX13         -0.0000234  -0.0000280   0.0000000   0.0000215  -0.0000045
           CY13         -0.0000890   0.0000446   0.0000000  -0.0000012   0.0000039
           CZ13          0.0000000   0.0000000   0.0000345   0.0000000   0.0000000
           CX14          0.0000215  -0.0000045   0.0000000  -0.0000234  -0.0000280
           CY14         -0.0000012   0.0000039   0.0000000  -0.0000890   0.0000446
           CZ14          0.0000000   0.0000000   0.0000087   0.0000000   0.0000000
           HX15         -0.0001122   0.0007830   0.0000000  -0.0004587   0.0000115
           HY15         -0.0004695   0.0001545   0.0000000  -0.0000437   0.0000394
           HZ15          0.0000000   0.0000000  -0.0000361   0.0000000   0.0000000
           HX16         -0.0004587   0.0000115   0.0000000  -0.0001122   0.0007830
           HY16         -0.0000437   0.0000394   0.0000000  -0.0004695   0.0001545
           HZ16          0.0000000   0.0000000  -0.0002150   0.0000000   0.0000000
           HX17         -0.0000154   0.0000103   0.0000000  -0.0000238   0.0000874
           HY17          0.0000488   0.0000060   0.0000000  -0.0000049   0.0000315
           HZ17          0.0000000   0.0000000   0.0000060   0.0000000   0.0000000
           HX18         -0.0000238   0.0000874   0.0000000  -0.0000154   0.0000103
           HY18         -0.0000049   0.0000315   0.0000000   0.0000488   0.0000060
           HZ18          0.0000000   0.0000000   0.0003226   0.0000000   0.0000000
           HX19         -0.0000485  -0.0000139   0.0000000   0.0000982  -0.0000810
           HY19         -0.0000191   0.0000019   0.0000000  -0.0000322  -0.0000362
           HZ19          0.0000000   0.0000000   0.0000194   0.0000000   0.0000000
           HX20          0.0000982  -0.0000810   0.0000000  -0.0000485  -0.0000139
           HY20         -0.0000322  -0.0000362   0.0000000  -0.0000191   0.0000019
           HZ20          0.0000000   0.0000000  -0.0000931   0.0000000   0.0000000
                             HZ12        CX13        CY13        CZ13        CX14    
           HZ12          0.0281605
           CX13          0.0000000   0.0745053
           CY13          0.0000000  -0.0089675   0.0725066
           CZ13          0.0000087   0.0000000   0.0000000   0.0094658
           CX14          0.0000000   0.0000126  -0.0000657   0.0000000   0.0745053
           CY14          0.0000000  -0.0000657   0.0000382   0.0000000  -0.0089675
           CZ14          0.0000345   0.0000000   0.0000000   0.0000042   0.0000000
           HX15          0.0000000   0.0023518   0.0092768   0.0000000  -0.0000200
           HY15          0.0000000  -0.0027405  -0.0044571   0.0000000  -0.0000126
           HZ15         -0.0002150   0.0000000   0.0000000   0.0016375   0.0000000
           HX16          0.0000000  -0.0000200  -0.0000552   0.0000000   0.0023518
           HY16          0.0000000  -0.0000126  -0.0000073   0.0000000  -0.0027405
           HZ16         -0.0000361   0.0000000   0.0000000  -0.0000014   0.0000000
           HX17          0.0000000   0.0000139   0.0000116   0.0000000  -0.1092294
           HY17          0.0000000   0.0000030   0.0000097   0.0000000  -0.0295958
           HZ17          0.0003226   0.0000000   0.0000000  -0.0000048   0.0000000
[...]
 
                             46 Ag       47 Bu       48 Ag       49 Bu       50 Ag 
 Wavenumbers [cm-1]         3435.29     3444.72     3448.17     3464.62     3467.52
 Intensities [km/mol]          0.00        0.80        0.00        6.05        0.00
 Intensities [relative]        0.00        0.82        0.00        6.16        0.00
           CX1              0.00158    -0.00212    -0.00135    -0.00021     0.00220
           CY1              0.00032     0.00075     0.00272     0.00385     0.00124
           CZ1              0.00000     0.00000     0.00000     0.00000     0.00000
           CX2             -0.00063    -0.01668    -0.01712    -0.01311     0.01269
           CY2             -0.00173    -0.04913    -0.04919    -0.02749     0.02764
           CZ2              0.00000     0.00000     0.00000     0.00000     0.00000
           CX3             -0.00067    -0.01549    -0.01554     0.03454    -0.03464
           CY3              0.00054     0.02348     0.02280    -0.04025     0.04072
           CZ3              0.00000     0.00000     0.00000     0.00000     0.00000
           CX4             -0.00158    -0.00212     0.00135    -0.00021    -0.00220
           CY4             -0.00032     0.00075    -0.00272     0.00385    -0.00124
           CZ4              0.00000     0.00000     0.00000     0.00000     0.00000
           CX5              0.00063    -0.01668     0.01712    -0.01311    -0.01269
           CY5              0.00173    -0.04913     0.04919    -0.02749    -0.02764
           CZ5              0.00000     0.00000     0.00000     0.00000     0.00000
           CX6              0.00067    -0.01549     0.01554     0.03454     0.03464
           CY6             -0.00054     0.02348    -0.02280    -0.04025    -0.04072
           CZ6              0.00000     0.00000     0.00000     0.00000     0.00000
           CX7             -0.00954     0.00010     0.00032     0.00010    -0.00004
           CY7             -0.05783     0.00104     0.00183    -0.00008    -0.00071
           CZ7              0.00000     0.00000     0.00000     0.00000     0.00000
           CX8              0.00954     0.00010    -0.00032     0.00010     0.00004
           CY8              0.05783     0.00104    -0.00183    -0.00008     0.00071
           CZ8              0.00000     0.00000     0.00000     0.00000     0.00000
           HX9             -0.00474     0.20509    -0.20345    -0.36963    -0.37059
           HY9              0.00619    -0.25626     0.25295     0.45644     0.45811
           HZ9              0.00000     0.00000     0.00000     0.00000     0.00000
           HX10             0.00474     0.20509     0.20345    -0.36963     0.37059
           HY10            -0.00619    -0.25626    -0.25295     0.45644    -0.45811
           HZ10             0.00000     0.00000     0.00000     0.00000     0.00000
           HX11             0.00652     0.20313     0.20422     0.11410    -0.11209
           HY11             0.02094     0.55243     0.55395     0.30526    -0.30159
           HZ11             0.00000     0.00000     0.00000     0.00000     0.00000
           HX12            -0.00652     0.20313    -0.20422     0.11410     0.11209
           HY12            -0.02094     0.55243    -0.55395     0.30526     0.30159
           HZ12             0.00000     0.00000     0.00000     0.00000     0.00000
           CX13            -0.00971    -0.00083     0.00089     0.00100     0.00097
           CY13             0.01371     0.00021    -0.00033     0.00013     0.00028
           CZ13             0.00000     0.00000     0.00000     0.00000     0.00000
           CX14             0.00971    -0.00083    -0.00089     0.00100    -0.00097
           CY14            -0.01371     0.00021     0.00033     0.00013    -0.00028
           CZ14             0.00000     0.00000     0.00000     0.00000     0.00000
           HX15             0.14620    -0.00071    -0.00393    -0.00067    -0.00029
           HY15             0.63304    -0.01027    -0.02076    -0.00181     0.00554
           HZ15             0.00000     0.00000     0.00000     0.00000     0.00000
           HX16            -0.14620    -0.00071     0.00393    -0.00067     0.00029
           HY16            -0.63304    -0.01027     0.02076    -0.00181    -0.00554
           HZ16             0.00000     0.00000     0.00000     0.00000     0.00000
           HX17            -0.08780     0.01111     0.00791    -0.01012     0.01096
           HY17            -0.02776     0.00321     0.00254    -0.00310     0.00309
           HZ17             0.00000     0.00000     0.00000     0.00000     0.00000
           HX18             0.08780     0.01111    -0.00791    -0.01012    -0.01096
           HY18             0.02776     0.00321    -0.00254    -0.00310    -0.00309
           HZ18             0.00000     0.00000     0.00000     0.00000     0.00000
           HX19             0.02623    -0.00111    -0.00090     0.00035    -0.00005
           HY19             0.14093    -0.00711    -0.00638     0.00408    -0.00215
           HZ19             0.00000     0.00000     0.00000     0.00000     0.00000
           HX20            -0.02623    -0.00111     0.00090     0.00035     0.00005
           HY20            -0.14093    -0.00711     0.00638     0.00408     0.00215
           HZ20             0.00000     0.00000     0.00000     0.00000     0.00000
 
                             51 Bu       52 Ag 
 Wavenumbers [cm-1]         3546.79     3546.80
 Intensities [km/mol]          0.01        0.00
 Intensities [relative]        0.01        0.00
           CX1              0.00032    -0.00032
           CY1             -0.00014     0.00015
           CZ1              0.00000     0.00000
           CX2             -0.00002    -0.00007
           CY2              0.00003    -0.00009
           CZ2              0.00000     0.00000
           CX3              0.00025     0.00034
           CY3             -0.00031    -0.00039
           CZ3              0.00000     0.00000
           CX4              0.00032     0.00032
           CY4             -0.00014    -0.00015
           CZ4              0.00000     0.00000
           CX5             -0.00002     0.00007
           CY5              0.00003     0.00009
           CZ5              0.00000     0.00000
           CX6              0.00025    -0.00034
           CY6             -0.00031     0.00039
           CZ6              0.00000     0.00000
           CX7             -0.00067     0.00067
           CY7             -0.00324     0.00325
           CZ7              0.00000     0.00000
           CX8             -0.00067    -0.00067
           CY8             -0.00324    -0.00325
           CZ8              0.00000     0.00000
           HX9             -0.00337     0.00421
           HY9              0.00480    -0.00580
           HZ9              0.00000     0.00000
           HX10            -0.00337    -0.00421
           HY10             0.00480     0.00580
           HZ10             0.00000     0.00000
           HX11            -0.00004     0.00026
           HY11             0.00023     0.00060
           HZ11             0.00000     0.00000
           HX12            -0.00004    -0.00026
           HY12             0.00023    -0.00060
           HZ12             0.00000     0.00000
           CX13            -0.04417     0.04417
           CY13            -0.05018     0.05017
           CZ13             0.00000     0.00000
           CX14            -0.04417    -0.04417
           CY14            -0.05018    -0.05017
           CZ14             0.00000     0.00000
           HX15             0.00666    -0.00668
           HY15             0.03723    -0.03731
           HZ15             0.00000     0.00000
           HX16             0.00666     0.00668
           HY16             0.03723     0.03731
           HZ16             0.00000     0.00000
           HX17             0.45024     0.45027
           HY17             0.13639     0.13639
           HZ17             0.00000     0.00000
           HX18             0.45024    -0.45027
           HY18             0.13639    -0.13639
           HZ18             0.00000     0.00000
           HX19             0.07441     0.07440
           HY19             0.46298     0.46294
           HZ19             0.00000     0.00000
           HX20             0.07441    -0.07440
           HY20             0.46298    -0.46294
           HZ20             0.00000     0.00000


 Normal Modes of low/zero frequencies
 
                                  1           2           3           4           5
 Wavenumbers [cm-1]            0.00        0.00        0.00        0.00        0.00
 Intensities [km/mol]          0.00        0.00        0.00        0.00        0.00
 Intensities [relative]        0.00        0.00        0.00        0.00        0.00
           CX1              0.08785     0.00404    -0.00045    -0.00041    -0.00079
           CY1             -0.00535     0.06889     0.03533     0.00109     0.04439
           CZ1              0.00560    -0.05334     0.00738    -0.01795    -0.01057
           CX2              0.09187    -0.01074    -0.02698     0.01947     0.00499
           CY2             -0.00190     0.05619     0.01252     0.01818     0.04935
           CZ2              0.00526    -0.03253     0.02955     0.05142    -0.08520
           CX3              0.09102    -0.00762    -0.02138     0.01527     0.00377
           CY3              0.00325     0.03724    -0.02151     0.04368     0.05676
           CZ3              0.00467    -0.03896     0.05745     0.07327    -0.06214
           CX4              0.08610     0.01049     0.01114    -0.00909    -0.00331
           CY4              0.00519     0.03009    -0.03434     0.05329     0.05955
           CZ4              0.00440    -0.06662     0.06448     0.02657     0.03699
           CX5              0.08209     0.02527     0.03767    -0.02897    -0.00909
           CY5              0.00174     0.04280    -0.01153     0.03620     0.05459
           CZ5              0.00474    -0.08743     0.04231    -0.04279     0.11161
           CX6              0.08293     0.02215     0.03207    -0.02478    -0.00787
           CY6             -0.00340     0.06175     0.02250     0.01070     0.04718
           CZ6              0.00533    -0.08099     0.01441    -0.06465     0.08855
           CX7              0.08896    -0.00005    -0.00779     0.00509     0.00081
           CY7             -0.01081     0.08900     0.07143    -0.02596     0.03653
           CZ7              0.00622    -0.04535    -0.02205    -0.03860    -0.03920
           CX8              0.08499     0.01458     0.01848    -0.01459    -0.00491
           CY8              0.01065     0.00999    -0.07044     0.08034     0.06741
           CZ8              0.00378    -0.07461     0.09391     0.04722     0.06562
           HX9              0.07975     0.03388     0.05313    -0.04055    -0.01245
           HY9             -0.00596     0.07116     0.03940    -0.00196     0.04350
           HZ9              0.00558    -0.09757    -0.00218    -0.11857     0.14799
           HX10             0.09420    -0.01935    -0.04244     0.03105     0.00835
           HY10             0.00581     0.02783    -0.03841     0.05634     0.06044
           HZ10             0.00442    -0.02239     0.07403     0.12719    -0.12157
           HX11             0.09570    -0.02485    -0.05233     0.03846     0.01050
           HY11            -0.00331     0.06141     0.02190     0.01116     0.04731
           HZ11             0.00546    -0.01101     0.02460     0.08840    -0.16234
           HX12             0.07825     0.03938     0.06302    -0.04797    -0.01461
           HY12             0.00316     0.03758    -0.02091     0.04323     0.05663
           HZ12             0.00454    -0.10895     0.04726    -0.07978     0.18876
           CX13             0.08563     0.01224     0.01428    -0.01145    -0.00400
           CY13            -0.01453     0.10271     0.09606    -0.04441     0.03117
           CZ13             0.00659    -0.06236    -0.04523    -0.10161     0.02180
           CX14             0.08833     0.00229    -0.00359     0.00194    -0.00011
           CY14             0.01438    -0.00372    -0.09507     0.09879     0.07277
           CZ14             0.00341    -0.05760     0.11709     0.11023     0.00462
           HX15             0.09295    -0.01474    -0.03417     0.02486     0.00655
           HY15            -0.01172     0.09238     0.07750    -0.03050     0.03521
           HZ15             0.00636    -0.02314    -0.02411     0.00336    -0.11880
           HX16             0.08100     0.02927     0.04486    -0.03436    -0.01065
           HY16             0.01157     0.00661    -0.07651     0.08489     0.06873
           HZ16             0.00364    -0.09681     0.09597     0.00526     0.14522
           HX17             0.08714     0.00667     0.00427    -0.00395    -0.00182
           HY17             0.01828    -0.01809    -0.12086     0.11812     0.07839
           HZ17             0.00296    -0.06547     0.13782     0.12027     0.03285
           HX18             0.08681     0.00786     0.00642    -0.00556    -0.00229
           HY18            -0.01843     0.11708     0.12185    -0.06374     0.02555
           HZ18             0.00704    -0.05448    -0.06596    -0.11165    -0.00643
           HX19             0.09235    -0.01253    -0.03021     0.02189     0.00569
           HY19             0.01373    -0.00133    -0.09077     0.09557     0.07184
           HZ19             0.00352    -0.03529     0.11654     0.15428    -0.07535
           HX20             0.08160     0.02706     0.04090    -0.03139    -0.00979
           HY20            -0.01388     0.10032     0.09176    -0.04119     0.03210
           HZ20             0.00648    -0.08467    -0.04468    -0.14566     0.10176
 
                                  6           7           8
 Wavenumbers [cm-1]            0.00       50.28       83.62
 Intensities [km/mol]          0.00        0.00        0.00
 Intensities [relative]        0.00        0.00        0.00
           CX1             -0.00332     0.00000     0.00000
           CY1              0.04530     0.00000     0.00000
           CZ1              0.08683    -0.04491    -0.05445
           CX2             -0.00559     0.00000     0.00000
           CY2              0.04335     0.00000     0.00000
           CZ2              0.10929    -0.05801     0.02614
           CX3             -0.00511     0.00000     0.00000
           CY3              0.04044     0.00000     0.00000
           CZ3              0.07413    -0.05416     0.08394
           CX4             -0.00233     0.00000     0.00000
           CY4              0.03934     0.00000     0.00000
           CZ4              0.01466    -0.04491     0.05445
           CX5             -0.00007     0.00000     0.00000
           CY5              0.04129     0.00000     0.00000
           CZ5             -0.00781    -0.05801    -0.02614
           CX6             -0.00055     0.00000     0.00000
           CY6              0.04420     0.00000     0.00000
           CZ6              0.02736    -0.05416    -0.08394
           CX7             -0.00395     0.00000     0.00000
           CY7              0.04838     0.00000     0.00000
           CZ7              0.12626    -0.01155    -0.08800
           CX8             -0.00171     0.00000     0.00000
           CY8              0.03626     0.00000     0.00000
           CZ8             -0.02477    -0.01155     0.08800
           HX9              0.00125     0.00000     0.00000
           HY9              0.04564     0.00000     0.00000
           HZ9              0.00859    -0.05803    -0.15759
           HX10            -0.00691     0.00000     0.00000
           HY10             0.03899     0.00000     0.00000
           HZ10             0.09290    -0.05803     0.15759
           HX11            -0.00776     0.00000     0.00000
           HY11             0.04415     0.00000     0.00000
           HZ11             0.15515    -0.06238     0.05263
           HX12             0.00210     0.00000     0.00000
           HY12             0.04049     0.00000     0.00000
           HZ12            -0.05367    -0.06238    -0.05263
           CX13            -0.00207     0.00000     0.00000
           CY13             0.05049     0.00000     0.00000
           CZ13             0.11200     0.15089     0.09298
           CX14            -0.00359     0.00000     0.00000
           CY14             0.03415     0.00000     0.00000
           CZ14            -0.01051     0.15089    -0.09298
           HX15            -0.00621     0.00000     0.00000
           HY15             0.04890     0.00000     0.00000
           HZ15             0.17110    -0.11311    -0.24843
           HX16             0.00055     0.00000     0.00000
           HY16             0.03574     0.00000     0.00000
           HZ16            -0.06961    -0.11311     0.24843
           HX17            -0.00292     0.00000     0.00000
           HY17             0.03195     0.00000     0.00000
           HZ17            -0.04266     0.17223    -0.06340
           HX18            -0.00274     0.00000     0.00000
           HY18             0.05269     0.00000     0.00000
           HZ18             0.14414     0.17223     0.06340
           HX19            -0.00587     0.00000     0.00000
           HY19             0.03452     0.00000     0.00000
           HZ19             0.03331     0.27264    -0.28280
           HX20             0.00021     0.00000     0.00000
           HY20             0.05012     0.00000     0.00000
           HZ20             0.06818     0.27264     0.28280


 Zero point energy:  0.17704814 [H]    38857.57 [1/CM]      464.84 [KJ/MOL]

 Recomputing wavefunction at initial geometry


 **********************************************************************************************************************************
 DATASETS  * FILE   NREC   LENGTH (MB)   RECORD NAMES
              1      21        8.29       500      610      700      900      703      950      970     1001     1100     1400   
                                          VAR    BASINP    GEOM    SYMINP    GEOM     ZMAT    AOBASIS   BASIS      S        T 
                                         1410     1200     1210     1080     1600      129      960     1650     1300     1700   
                                           V       H0       H01     AOSYM     SMH      P2S    ABASIS   MOLCAS    ERIS     OPER   
                                         1800   
                                         GRID   
 
              2      15        1.85       700     1000     1800     1801     2100      701      702     1001     1800(1)  1801(1)
                                         GEOM     BASIS    GRID     GRID      RKS     GEOM     GEOM     BASIS    GRID     GRID   
                                         2101     5300     5400     5450      703   
                                          RKS     HESS     FREQ     NMOD     GEOM   
 
 PROGRAMS   *        TOTAL        KS        KS        KS        KS        KS        KS        KS        KS        KS        KS
 CPU TIMES  *      2279.58     24.14     25.80     25.74     25.74     24.14     24.36     25.69     24.22     24.13     28.89
 REAL TIME  *      3139.06 SEC
 DISK USED  *        27.07 MB      
 **********************************************************************************************************************************

        KS-SCF          KS-SCF          KS-SCF          KS-SCF          KS-SCF          KS-SCF          KS-SCF          KS-SCF  
   -382.05071119   -382.05070994   -382.05069045   -382.05069045   -382.05070881   -382.05070603   -382.05070994   -382.05070627
 **********************************************************************************************************************************
 Variable memory released
