 *******************************************************************************
 ** Site#: 6541         For non-commercial use only     Version 16.093M 64BITS**
 *******************************************************************************
 ** Cite this program as: MOPAC2016, Version: 16.093M, James J. P. Stewart,   **
 ** Stewart Computational Chemistry, web: HTTP://OpenMOPAC.net. Days left: 360**
 *******************************************************************************
 **                                                                           **
 **                                MOPAC2016                                  **
 **                                                                           **
 *******************************************************************************

                              PM7 CALCULATION RESULTS


 *******************************************************************************
 *  CALCULATION DONE:                                Fri Apr  8 18:17:33 2016  *
 *  PM7        - The PM7 Hamiltonian to be used
 *  SINGLET    - SPIN STATE DEFINED AS A SINGLET
 *
 *
 *
 *                 CHARGE ON SYSTEM = 0
 *
 *
 *
 *  T=         - A TIME OF 172800.0 SECONDS REQUESTED
 *  DUMP=N     - RESTART FILE WRITTEN EVERY  7200.000 SECONDS
 *  CYCLES=    - DO A MAXIMUM OF     2 STEPS
 *  LARGE      - EXPANDED OUTPUT TO BE PRINTED
 *******************************************************************************
 LARGE CHARGE=0 SINGLET  PM7 CYCLES=2
 Title

   ATOM   CHEMICAL          X               Y               Z
  NUMBER   SYMBOL      (ANGSTROMS)     (ANGSTROMS)     (ANGSTROMS)
 
     1       C         -4.51254000  *  -0.66910000  *   0.00000000  *
     2       C         -4.43706000  *   0.72368000  *   0.00000000  *
     3       C         -3.19314000  *   1.35471000  *   0.00000000  *
     4       C         -2.02469000  *   0.59295000  *   0.00000000  *
     5       C         -2.10017000  *  -0.79984000  *   0.00000000  *
     6       C         -3.34410000  *  -1.43086000  *   0.00000000  *
     7       H         -5.48170000  *  -1.16074000  *   0.00000000  *
     8       H         -5.34741000  *   1.31718000  *   0.00000000  *
     9       H         -3.13433000  *   2.43984000  *   0.00000000  *
    10       H         -1.05553000  *   1.08459000  *   0.00000000  *
    11       H         -1.18982000  *  -1.39333000  *   0.00000000  *
    12       H         -3.40291000  *  -2.51600000  *   0.00000000  *
 


          CARTESIAN COORDINATES 

    NO.       ATOM         X         Y         Z

     1         C       -4.5125   -0.6691    0.0000
     2         C       -4.4371    0.7237    0.0000
     3         C       -3.1931    1.3547    0.0000
     4         C       -2.0247    0.5929    0.0000
     5         C       -2.1002   -0.7998    0.0000
     6         C       -3.3441   -1.4309    0.0000
     7         H       -5.4817   -1.1607    0.0000
     8         H       -5.3474    1.3172    0.0000
     9         H       -3.1343    2.4398    0.0000
    10         H       -1.0555    1.0846    0.0000
    11         H       -1.1898   -1.3933    0.0000
    12         H       -3.4029   -2.5160    0.0000

 General Reference for PM7:
 "Optimization of Parameters for Semiempirical Methods VI: More Modifications to the 
 NDDO Approximations and Re-optimization of Parameters", J. J. P. Stewart, J. Mol. Mod., 1:32, 19 (2013)
 http://www.springerlink.com/openurl.asp?genre=article&id=doi:10.1007/s00894-012-1667-x

           Empirical Formula: C6 H6  =    12 atoms



      MOLECULAR POINT GROUP   :   D6h 


 SINGLET STATE CALCULATION


      RHF CALCULATION, NO. OF DOUBLY OCCUPIED LEVELS = 15


          Geometry optimization using EF

          DIAGONAL MATRIX USED AS START HESSIAN

 CYCLE:     1 TIME:   0.008 TIME LEFT:  2.00D  GRAD.:     4.612 HEAT:  22.96148
 CYCLE:     2 TIME:   0.000 TIME LEFT:  2.00D  GRAD.:     3.184 HEAT:  22.95891

          EXCESS NUMBER OF OPTIMIZATION CYCLES


          CURRENT VALUE OF GRADIENT NORM =    1.719821

          CURRENT VALUE OF GEOMETRY

 LARGE CHARGE=0 SINGLET  PM7 CYCLES=2
 Title

  C    -4.51169253 +1  -0.66896752 +1  -0.00000000 +1
  C    -4.43624203 +1   0.72348411 +1   0.00000000 +1
  C    -3.19318759 +1   1.35377892 +1  -0.00000000 +1
  C    -2.02555849 +1   0.59280392 +1  -0.00000000 +1
  C    -2.10099665 +1  -0.79966045 +1   0.00000000 +1
  C    -3.34401961 +1  -1.42990012 +1  -0.00000000 +1
  H    -5.48199322 +1  -1.16098084 +1   0.00000000 +1
  H    -5.34770293 +1   1.31741645 +1   0.00000000 +1
  H    -3.13432605 +1   2.44003439 +1   0.00000000 +1
  H    -1.05522186 +1   1.08486136 +1   0.00000000 +1
  H    -1.18955841 +1  -1.39362580 +1   0.00000000 +1
  H    -3.40290822 +1  -2.51616160 +1   0.00000000 +1
 

 ******************************************************************************
 *                                                                            *
 *     Error and normal termination messages reported in this calculation     *
 *                                                                            *
 * EXCESS NUMBER OF OPTIMIZATION CYCLES                                       *
 * JOB ENDED NORMALLY                                                         *
 *                                                                            *
 ******************************************************************************



 TOTAL JOB TIME:             0.02 SECONDS

 == MOPAC DONE ==
