 *******************************************************************************
 **                                                                           **
 **                              MOPAC v23.1.2                                **
 **                                                                           **
 *******************************************************************************
 **          Digital Object Identifier (DOI): 10.5281/zenodo.6511958          **
 **    Visit the DOI location for information on how to cite this program.    **
 *******************************************************************************

                              PM7 CALCULATION RESULTS

 *******************************************************************************
 *  CALCULATION DONE: (MAX THREADS = 16)             Mon Jul 14 17:03:42 2025  *
 *
 *
 *
 *                 CHARGE ON SYSTEM = -1
 *
 *
 *
 *  T=         - A TIME OF 172800.0 SECONDS REQUESTED
 *  DUMP=N     - RESTART FILE WRITTEN EVERY 7200.0 SECONDS REQUESTED
 *  LARGE      - EXPANDED OUTPUT TO BE PRINTED
 *******************************************************************************
 LARGE CHARGE=-1
 Title

   ATOM   CHEMICAL          X               Y               Z
  NUMBER   SYMBOL      (ANGSTROMS)     (ANGSTROMS)     (ANGSTROMS)

     1       C         -5.40592000  *  -0.47619000  *  -0.00000000  *
     2       O         -4.36197000  *  -0.31061000  *  -0.00000000  *



          CARTESIAN COORDINATES 

    NO.       ATOM           X           Y           Z

     1         C         -5.4059     -0.4762     -0.0000
     2         O         -4.3620     -0.3106     -0.0000

 General Reference for PM7:
 "Optimization of Parameters for Semiempirical Methods VI: More Modifications to the 
 NDDO Approximations and Re-optimization of Parameters", J. J. P. Stewart, J. Mol. Mod., 1:32, 19 (2013)
 https://link.springer.com/article/10.1007/s00894-012-1667-x

           Empirical Formula: C O  =     2 atoms



      MOLECULAR POINT GROUP   :   C*v 


          UHF CALCULATION, NO. OF ALPHA ELECTRONS =    6
                           NO. OF BETA  ELECTRONS =    5

          Geometry optimization using EF

          DIAGONAL MATRIX USED AS START HESSIAN

 CYCLE:     1 TIME:   0.000 TIME LEFT:  2.00D  GRAD.:   523.732 HEAT:  35.12312
 CYCLE:     2 TIME:   0.000 TIME LEFT:  2.00D  GRAD.:   272.822 HEAT:  29.99332
 CYCLE:     3 TIME:   0.004 TIME LEFT:  2.00D  GRAD.:   126.709 HEAT:  15.76729
 CYCLE:     4 TIME:   0.000 TIME LEFT:  2.00D  GRAD.:    92.210 HEAT:  14.23011
 CYCLE:     5 TIME:   0.000 TIME LEFT:  2.00D  GRAD.:    12.738 HEAT:  13.27906
 CYCLE:     6 TIME:   0.000 TIME LEFT:  2.00D  GRAD.:     0.967 HEAT:  13.25821

     GRADIENT =  0.96689 IS LESS THAN CUTOFF =  1.00000



 -------------------------------------------------------------------------------
 LARGE CHARGE=-1
 Title



     GEOMETRY OPTIMISED USING EIGENVECTOR FOLLOWING (EF).     
     SCF FIELD WAS ACHIEVED                                   


                              PM7 CALCULATION
                                                       MOPAC v23.1.2 Windows
                                                       Mon Jul 14 17:03:42 2025




          FINAL HEAT OF FORMATION =         13.25821 KCAL/MOL =      55.47234 KJ/MOL


          COSMO AREA              =         58.13 SQUARE ANGSTROMS
          COSMO VOLUME            =         40.95 CUBIC ANGSTROMS

          GRADIENT NORM           =          0.96689          =       0.68369 PER ATOM
          IONIZATION POTENTIAL    =         -1.129387 EV
          ALPHA SOMO LUMO (EV)    =          1.129  9.804
          BETA  SOMO LUMO (EV)    =         -3.109 10.218
          NO. OF ALPHA ELECTRONS  =          6
          NO. OF BETA  ELECTRONS  =          5
          MOLECULAR WEIGHT        =         28.0104         POINT GROUP:  C*v 

          MOLECULAR DIMENSIONS (Angstroms)

            Atom       Atom       Distance
            O     2    C     1     1.18996
            O     2    C     1     0.00000
            O     2    C     1     0.00000


          SCF CALCULATIONS        =          7

          WALL-CLOCK TIME         =      0.016 SECONDS
          COMPUTATION TIME        =      0.016 SECONDS




   ATOM   CHEMICAL          X               Y               Z
  NUMBER   SYMBOL      (ANGSTROMS)     (ANGSTROMS)     (ANGSTROMS)

     1       C         -5.47147229  *  -0.48729054  *   0.00000000  *
     2       O         -4.29641771  *  -0.29950946  *  -0.00000000  *

                             CARTESIAN COORDINATES

   1    C       -5.471472289    -0.487290538     0.000000000
   2    O       -4.296417710    -0.299509463    -0.000000001


           Empirical Formula: C O  =     2 atoms



      MOLECULAR POINT GROUP   :   C*v 


          ALPHA EIGENVALUES  
 -21.91110 -10.27674  -6.29704  -6.06411  -3.54503   1.12939   9.80415  14.41828


           BETA EIGENVALUES 
 -21.31105  -9.77366  -5.87464  -5.35514  -3.10893  10.21800  11.00618  14.98186


              NET ATOMIC CHARGES AND DIPOLE CONTRIBUTIONS

  ATOM NO.   TYPE          CHARGE      No. of ELECS.   s-Pop       p-Pop       
    1          C          -0.276569        4.2766     1.72998     2.54659
    2          O          -0.723431        6.7234     1.85062     4.87281
 DIPOLE           X         Y         Z       TOTAL
 POINT-CHG.    -0.859    -0.137     0.000     0.870
 HYBRID         1.790     0.286    -0.000     1.813
 SUM            0.931     0.149    -0.000     0.943


          ATOMIC ORBITAL ELECTRON POPULATIONS

     Atom    s        px        py        pz   
    1  C   1.72998   0.96492   1.17474   0.40693
    2  O   1.85062   1.46894   1.81080   1.59307


                    (SZ)    =    0.500000
                    (S**2)  =    0.750503


          ATOMIC ORBITAL SPIN POPULATIONS

    Atom   Total    s     px     py     pz   
         Atomic
    1  C  0.8381  0.005  0.021  0.799  0.013
    2  O  0.1619  0.005 -0.006  0.175 -0.013

 **********************
 *                    *
 * JOB ENDED NORMALLY *
 *                    *
 **********************



 TOTAL JOB TIME:             0.02 SECONDS

 == MOPAC DONE ==
