 *******************************************************************************
 **                                                                           **
 **                              MOPAC v23.1.2                                **
 **                                                                           **
 *******************************************************************************
 **          Digital Object Identifier (DOI): 10.5281/zenodo.6511958          **
 **    Visit the DOI location for information on how to cite this program.    **
 *******************************************************************************

                              PM7 CALCULATION RESULTS

 *******************************************************************************
 *  CALCULATION DONE: (MAX THREADS = 16)             Mon Jul 14 17:06:28 2025  *
 *  SINGLET    - SPIN STATE DEFINED AS A SINGLET
 *
 *
 *
 *                 CHARGE ON SYSTEM = 0
 *
 *
 *
 *  FORCE      - FORCE CALCULATION SPECIFIED
 *  T=         - A TIME OF 172800.0 SECONDS REQUESTED
 *  DUMP=N     - RESTART FILE WRITTEN EVERY 7200.0 SECONDS REQUESTED
 *  AUX        - OUTPUT AUXILIARY INFORMATION
 *  LARGE      - EXPANDED OUTPUT TO BE PRINTED
 *******************************************************************************
 AUX LARGE CHARGE=0 SINGLET FORCE
 h2o.out

  ATOM    CHEMICAL      BOND LENGTH      BOND ANGLE     TWIST ANGLE 
 NUMBER    SYMBOL       (ANGSTROMS)      (DEGREES)       (DEGREES) 
   (I)                     NA:I           NB:NA:I       NC:NB:NA:I       NA    NB    NC 
     1       O          0.00000000  *    0.0000000  *    0.0000000  *     0     0     0
     2       H          0.95658500  *    0.0000000  *    0.0000000  *     1     0     0
     3       H          0.95503300  *  105.2227260  *    0.0000000  *     1     2     0



          CARTESIAN COORDINATES 

    NO.       ATOM           X           Y           Z

     1         O          0.0000      0.0000      0.0000
     2         H          0.9566      0.0000      0.0000
     3         H         -0.2508      0.9215      0.0000

 General Reference for PM7:
 "Optimization of Parameters for Semiempirical Methods VI: More Modifications to the 
 NDDO Approximations and Re-optimization of Parameters", J. J. P. Stewart, J. Mol. Mod., 1:32, 19 (2013)
 https://link.springer.com/article/10.1007/s00894-012-1667-x

           Empirical Formula: H2 O  =     3 atoms



      MOLECULAR POINT GROUP   :   C2v 


 SINGLET STATE CALCULATION


      RHF CALCULATION, NO. OF DOUBLY OCCUPIED LEVELS = 4



          HEAT OF FORMATION =     -57.799162 KCALS/MOLE


          CARTESIAN COORDINATE DERIVATIVES

   NUMBER  ATOM         X            Y            Z

     1       O     -0.911333     0.076925     0.000000
     2       H      0.658422     0.177062     0.000000
     3       H      0.252911    -0.253987     0.000000

 DIPOLE           X         Y         Z       TOTAL
 POINT-CHG.     1.100     1.435     0.000     1.808
 HYBRID         0.196     0.257     0.000     0.323
 SUM            1.296     1.692     0.000     2.131


          GRADIENT NORM =   1.19574

          MOLECULAR WEIGHT =   18.02



          ROTATIONAL CONSTANTS IN CM(-1)

          A =   27.95468542   B =   14.50037384   C =    9.54782295



           PRINCIPAL MOMENTS OF INERTIA IN UNITS OF 10**(-40)*GRAM-CM**2

          A =        1.0014   B =        1.9305   C =        2.9318


          ORIENTATION OF MOLECULE IN FORCE CALCULATION

    NO.       ATOM         X         Y         Z

     1          O      -0.0395   -0.0516    0.0000
     2          H       0.9171   -0.0516    0.0000
     3          H      -0.2903    0.8700    0.0000


    FIRST DERIVATIVES WILL BE USED IN THE CALCULATION OF SECOND DERIVATIVES

          ESTIMATED TIME TO COMPLETE CALCULATION =        0.07 SECONDS

    FOR POINT-GROUP C2v  THERE ARE   4 UNIQUE SYMMETRY FUNCTIONS.

 STEP:   1 TIME =     0.00 SECS, INTEGRAL =      0.00 TIME LEFT: 172800.00
 STEP:   2 TIME =     0.00 SECS, INTEGRAL =      0.00 TIME LEFT: 172800.00
 STEP:   3 TIME =     0.00 SECS, INTEGRAL =      0.00 TIME LEFT: 172800.00
 STEP:   4 TIME =     0.00 SECS, INTEGRAL =      0.00 TIME LEFT: 172800.00
 STEP:   5 TIME =     0.00 SECS, INTEGRAL =      0.00 TIME LEFT: 172800.00
 STEP:   6 TIME =     0.00 SECS, INTEGRAL =      0.01 TIME LEFT: 172799.99
 STEP:   7                       INTEGRAL =      0.01 TIME LEFT: 172799.99
 STEP:   8                       INTEGRAL =      0.01 TIME LEFT: 172799.99
 STEP:   9                       INTEGRAL =      0.01 TIME LEFT: 172799.99

(To convert to Hartree/Bohr^2, multiply by (10^(-21) x N x a0^2)/(4.184 x 627.51) =  0.0642)


           FORCE MATRIX IN MILLIDYNES/ANGSTROM


                  O  1       H  2       H  3
 ------------------------------------------
     O    1   6.430690
     H    2   4.075184   4.524204
     H    3   4.083688   0.850257   4.524204


          HEAT OF FORMATION =     -57.799162 KCALS/MOLE


          TRIVIAL VIBRATIONS, SHOULD BE ZERO

   1.5819=TX  44.4911=TY -37.0325=TZ   0.0570=RX  -7.4562=RY  -1.6189=RZ


      MOLECULAR POINT GROUP   :   C2v 


           EIGENVECTORS  


   Root No.       1         2         3

                 1 A1      2 A1      1 B2  

                   2.1       7.0       9.8
  
           1   -0.3162   -0.3833    0.5927
           2   -0.4136   -0.4986   -0.4547
           3   -0.0000   -0.0000   -0.0000
           4   -0.2750    0.5503   -0.4687
           5    0.5371   -0.0239   -0.0002
           6    0.0000    0.0000    0.0000
           7    0.5912   -0.1670   -0.1240
           8   -0.1235    0.5226    0.4549
           9    0.0000   -0.0000    0.0000


          FORCE CONSTANTS IN MILLIDYNES/ANGSTROM (= 10**5 DYNES/CM)

   2.14018   7.01504   9.82402


           ASSOCIATED EIGENVECTORS




    ROOT NO.    1           2           3

             2.14018     7.01504     9.82402
  
         1  -0.31619    -0.38334     0.59268
         2  -0.41363    -0.49865    -0.45470
         3  -0.00000    -0.00000    -0.00000
         4  -0.27500     0.55035    -0.46871
         5   0.53715    -0.02390    -0.00018
         6   0.00000     0.00000     0.00000
         7   0.59120    -0.16701    -0.12397
         8  -0.12351     0.52255     0.45488
         9   0.00000    -0.00000     0.00000

          ZERO POINT ENERGY      10.098 KCAL/MOL


           FREQUENCIES, REDUCED MASSES AND VIBRATIONAL DIPOLES



   I         1         2         3         4         5         6
 FREQ(I) 1397.5745 2809.0771 2857.0500    7.4863    5.7536    0.0372

 MASS(I)   0.54640   0.51928   0.48972  12.62555  12.62555  12.62554

 DIPX(I)   0.32116   1.00155   0.23869   0.00193   0.00092   0.00000
 DIPY(I)   0.42063  -0.76179   0.31091   0.00092   0.00244   0.00000
 DIPZ(I)  -0.00000   0.00000  -0.00000   0.00000   0.00000   0.00015

 DIPT(I)   0.52922   1.25835   0.39197   0.00214   0.00261   0.00015


   I         7         8         9
 FREQ(I)   90.1340   36.6761   80.7102

 MASS(I)   0.59781   0.50396   0.48954

 DIPX(I)  -0.00000   0.00000  -0.65403
 DIPY(I)  -0.00000  -0.00000   0.49925
 DIPZ(I)   1.45614   0.00347  -0.00000

 DIPT(I)   1.45614   0.00347   0.82281


           NORMAL COORDINATE ANALYSIS (Total motion = 1 Angstrom)


   Root No.       1         2         3

                 1 A1      1 B2      2 A1  

                1397.6    2809.1    2857.1
  
           1   -0.0320   -0.0379   -0.0158
           2   -0.0420    0.0289   -0.0207
           3    0.0000    0.0000    0.0000
           4    0.0778    0.4761    0.4760
           5    0.4666    0.0011   -0.1036
           6   -0.0000   -0.0000   -0.0000
           7    0.4300    0.1261   -0.2250
           8    0.1999   -0.4592    0.4317
           9   -0.0000    0.0000   -0.0000


           MASS-WEIGHTED COORDINATE ANALYSIS (NORMAL COORDINATES)


   Root No.       1         2         3

                 1 A1      1 B2      2 A1  

                1397.6    2809.1    2857.1
  
           1   -0.1815   -0.2160   -0.0904
           2   -0.2383    0.1643   -0.1182
           3    0.0000    0.0000    0.0000
           4    0.1108    0.6805    0.6835
           5    0.6647    0.0016   -0.1488
           6   -0.0000   -0.0000   -0.0000
           7    0.6125    0.1802   -0.3231
           8    0.2847   -0.6563    0.6198
           9   -0.0000    0.0000   -0.0000


          DESCRIPTION OF VIBRATIONS


 VIBRATION          1    1A1         ATOM PAIR     ENERGY CONTRIBUTION    RADIAL
 FREQUENCY          1397.57         O 1 -- H 3         +50.1% ( 56.9%)      9.7%
 TRANSITION DIPOLE   0.5292         O 1 -- H 2         +49.9% ( 56.8%)      9.5%
 TRAVEL (Ang.)       0.2972
 REDUCED MASS        0.5464
 EFFECTIVE MASS      1.6946
 FORCE CONSTANT      0.6288

 VIBRATION          2    1B2         ATOM PAIR     ENERGY CONTRIBUTION    RADIAL
 FREQUENCY          2809.08         O 1 -- H 3         +50.0% ( 71.6%)     96.6%
 TRANSITION DIPOLE   1.2583         O 1 -- H 2         +50.0% ( 71.6%)     96.8%
 TRAVEL (Ang.)       0.2150
 REDUCED MASS        0.5193
 EFFECTIVE MASS      1.5001
 FORCE CONSTANT      2.4142

 VIBRATION          3    2A1         ATOM PAIR     ENERGY CONTRIBUTION    RADIAL
 FREQUENCY          2857.05         O 1 -- H 2         +50.0% ( 68.6%)     99.8%
 TRANSITION DIPOLE   0.3920         O 1 -- H 3         +50.0% ( 68.6%)     99.8%
 TRAVEL (Ang.)       0.2195
 REDUCED MASS        0.4897
 EFFECTIVE MASS      1.1499
 FORCE CONSTANT      2.3552

           FORCE CONSTANT IN INTERNAL COORDINATES (Millidynes/A)

    ATOM   CHEMICAL  BOND LENGTH      BOND ANGLE     TWIST ANGLE
   NUMBER   SYMBOL  FORCE CONSTANT  FORCE CONSTANT  FORCE CONSTANT

      1       O        0.000000        0.000000        0.000000
      2       H        4.449150        0.000000        0.000000
      3       H        4.445388        0.569683        0.000000

 **********************
 *                    *
 * JOB ENDED NORMALLY *
 *                    *
 **********************



 TOTAL JOB TIME:             0.02 SECONDS

 == MOPAC DONE ==
