 *******************************************************************************
 ** Site#: 6541         For non-commercial use only     Version 16.093M 64BITS**
 *******************************************************************************
 ** Cite this program as: MOPAC2016, Version: 16.093M, James J. P. Stewart,   **
 ** Stewart Computational Chemistry, web: HTTP://OpenMOPAC.net. Days left: 360**
 *******************************************************************************
 **                                                                           **
 **                                MOPAC2016                                  **
 **                                                                           **
 *******************************************************************************

                              PM7 CALCULATION RESULTS


 *******************************************************************************
 *  CALCULATION DONE:                                Fri Apr  8 18:36:56 2016  *
 *  TRIPLET    - SPIN STATE DEFINED AS A TRIPLET
 *  UHF        - UNRESTRICTED HARTREE-FOCK CALCULATION
 *  T=         - A TIME OF 172800.0 SECONDS REQUESTED
 *  DUMP=N     - RESTART FILE WRITTEN EVERY  7200.000 SECONDS
 *  LARGE      - EXPANDED OUTPUT TO BE PRINTED
 *******************************************************************************
 LARGE UHF TRIPLET
 Title

   ATOM   CHEMICAL          X               Y               Z
  NUMBER   SYMBOL      (ANGSTROMS)     (ANGSTROMS)     (ANGSTROMS)
 
     1       O         -5.40592000  *  -0.47619000  *   0.00000000  *
     2       O         -4.36197000  *  -0.31061000  *   0.00000000  *
 


          CARTESIAN COORDINATES 

    NO.       ATOM         X         Y         Z

     1         O       -5.4059   -0.4762    0.0000
     2         O       -4.3620   -0.3106    0.0000

 General Reference for PM7:
 "Optimization of Parameters for Semiempirical Methods VI: More Modifications to the 
 NDDO Approximations and Re-optimization of Parameters", J. J. P. Stewart, J. Mol. Mod., 1:32, 19 (2013)
 http://www.springerlink.com/openurl.asp?genre=article&id=doi:10.1007/s00894-012-1667-x

           Empirical Formula: O2  =     2 atoms



      MOLECULAR POINT GROUP   :   D*h 


 TRIPLET STATE CALCULATION


          UHF CALCULATION, NO. OF ALPHA ELECTRONS =    7
                           NO. OF BETA  ELECTRONS =    5

          Geometry optimization using EF

          DIAGONAL MATRIX USED AS START HESSIAN

 CYCLE:     1 TIME:   0.008 TIME LEFT:  2.00D  GRAD.:   222.730 HEAT: -3.750272
 CYCLE:     2 TIME:   0.008 TIME LEFT:  2.00D  GRAD.:   140.905 HEAT: -5.618448
 CYCLE:     3 TIME:   0.000 TIME LEFT:  2.00D  GRAD.:    30.260 HEAT: -9.033786
 CYCLE:     4 TIME:   0.000 TIME LEFT:  2.00D  GRAD.:     5.685 HEAT: -9.166914
 CYCLE:     5 TIME:   0.000 TIME LEFT:  2.00D  GRAD.:     0.215 HEAT: -9.171444

     GRADIENT =  0.21509  IS LESS THAN CUTOFF =  1.00000



 -------------------------------------------------------------------------------
 LARGE UHF TRIPLET
 Title



     GEOMETRY OPTIMISED USING EIGENVECTOR FOLLOWING (EF).     
     SCF FIELD WAS ACHIEVED                                   


                              PM7 CALCULATION
                                                       MOPAC2016 (Version: 16.093M)
                                                       Fri Apr  8 18:36:56 2016
                                                       No. of days remaining = 360




          FINAL HEAT OF FORMATION =         -9.17144 KCAL/MOL =     -38.37332 KJ/MOL


          TOTAL ENERGY            =       -587.42567 EV
          ELECTRONIC ENERGY       =       -951.56226 EV  POINT GROUP:     D*h 
          CORE-CORE REPULSION     =        364.13659 EV
          COSMO AREA              =         49.05 SQUARE ANGSTROMS
          COSMO VOLUME            =         31.42 CUBIC ANGSTROMS

          GRADIENT NORM           =          0.21509
          IONIZATION POTENTIAL    =         10.667813 EV
          ALPHA SOMO LUMO (EV)    =        -10.668  2.451
          BETA  SOMO LUMO (EV)    =        -15.302  0.614
          NO. OF ALPHA ELECTRONS  =          7
          NO. OF BETA  ELECTRONS  =          5
          MOLECULAR WEIGHT        =         31.9988

          MOLECULAR DIMENSIONS (Angstroms)

            Atom       Atom       Distance
            O     2    O     1     1.13095
            O     2    O     1     0.00000
            O     1    O     2     0.00000


          SCF CALCULATIONS        =          7
 
          WALL-CLOCK TIME         =          0.023 SECONDS
          COMPUTATION TIME        =          0.010 SECONDS




   ATOM   CHEMICAL          X               Y               Z
  NUMBER   SYMBOL      (ANGSTROMS)     (ANGSTROMS)     (ANGSTROMS)
 
     1       O         -5.44209638  *  -0.48410726  *  -0.00000000  *
     2       O         -4.32579361  *  -0.30269274  *  -0.00000000  *

                             CARTESIAN COORDINATES

   1    O       -5.442096385    -0.484107260    -0.000000000
   2    O       -4.325793614    -0.302692740    -0.000000000


           Empirical Formula: O2  =     2 atoms



      MOLECULAR POINT GROUP   :   D*h 


          ALPHA EIGENVALUES  
 -34.83549 -30.83402 -17.99930 -17.47964 -17.47964 -10.66781 -10.66781   2.45143


           BETA EIGENVALUES 
 -31.02858 -26.05942 -16.17693 -15.30164 -15.30164   0.61375   0.61375   4.07383


              NET ATOMIC CHARGES AND DIPOLE CONTRIBUTIONS

  ATOM NO.   TYPE          CHARGE      No. of ELECS.   s-Pop       p-Pop       
    1          O          -0.000000        6.0000     1.94850     4.05150
    2          O           0.000000        6.0000     1.94850     4.05150
 DIPOLE           X         Y         Z       TOTAL
 POINT-CHG.     0.000     0.000    -0.000     0.000
 HYBRID        -0.000    -0.000    -0.000     0.000
 SUM            0.000     0.000    -0.000     0.000


          ATOMIC ORBITAL ELECTRON POPULATIONS

     Atom    s        px        py        pz   
    1  O   1.94850   1.06304   1.48846   1.50000
    2  O   1.94850   1.06304   1.48846   1.50000


                    (SZ)    =    1.000000
                    (S**2)  =    2.003405


          ATOMIC ORBITAL SPIN POPULATIONS

    Atom   Total    s     px     py     pz   
         Atomic
    1  O  1.0000  0.013  0.000  0.487  0.500
    2  O  1.0000  0.013  0.000  0.487  0.500

 **********************
 *                    *
 * JOB ENDED NORMALLY *
 *                    *
 **********************



 TOTAL JOB TIME:             0.02 SECONDS

 == MOPAC DONE ==
