
 ***,H2O
 memory,100,m
 
 gprint,basis,orbitals=50
 
 cartesian
 
 symmetry,NOSYM
 
 geometry={
 H              0.0000000000       -0.8901392951        0.5586943229
 O              0.0000000000        0.0000000000       -0.0703939342
 H              0.0000000000        0.8901392951        0.5586943229
 }
 
 basis={default=cc-pvdz,
 }
 
 {hf;occ,5;wf,10,1,0}
 

 Variables initialized (774), CPU time= 0.00 sec
 Commands  initialized (547), CPU time= 0.02 sec, 516 directives.
 Default parameters read. Elapsed time= 0.11 sec

 Checking input...
 Passed
1


                                         ***  PROGRAM SYSTEM MOLPRO  ***
                         Copyright, University College Cardiff Consultants Limited, 2008

 Variable memory set to  100000000 words,  buffer space   230000 words

 ZSYMEL=NOSYM
 

Geometry recognized as XYZ

 SETTING BASIS          =    CC-PVDZ


 Recomputing integrals since basis changed


 Using cartesian basis functions

 Library entry H      S cc-pVDZ              selected for orbital group  1
 Library entry H      P cc-pVDZ              selected for orbital group  1
 Library entry O      S cc-pVDZ              selected for orbital group  2
 Library entry O      P cc-pVDZ              selected for orbital group  2
 Library entry O      D cc-pVDZ              selected for orbital group  2

1PROGRAM * SEWARD (Integral evaluation for generally contracted gaussian basis sets)     Author: Roland Lindh, 1990

 Geometry written to block  1 of record 700


 Point group  C1  



 ATOMIC COORDINATES

 NR  ATOM    CHARGE       X              Y              Z

   1  H       1.00    0.000000000   -1.682119487    1.055779261
   2  O       8.00    0.000000000    0.000000000   -0.133025257
   3  H       1.00    0.000000000    1.682119487    1.055779261

 Bond lengths in Bohr (Angstrom)

 1-2  2.059801483  2-3  2.059801483
     ( 1.090000000)     ( 1.090000000)

 Bond angles

  1-2-3  109.50000000


 BASIS DATA

   Nr Sym  Nuc  Type         Exponents   Contraction coefficients

   1.1 A     1  s            13.010000     0.019685    0.000000
   2.1 A                      1.962000     0.137977    0.000000
                              0.444600     0.478148    0.000000
                              0.122000     0.501240    1.000000
   3.1 A     1  x             0.727000     1.000000
   4.1 A     1  y             0.727000     1.000000
   5.1 A     1  z             0.727000     1.000000
   6.1 A     2  s         11720.000000     0.000710   -0.000160    0.000000
   7.1 A                   1759.000000     0.005470   -0.001263    0.000000
   8.1 A                    400.800000     0.027837   -0.006267    0.000000
                            113.700000     0.104800   -0.025716    0.000000
                             37.030000     0.283062   -0.070924    0.000000
                             13.270000     0.448719   -0.165411    0.000000
                              5.025000     0.270952   -0.116955    0.000000
                              1.013000     0.015458    0.557368    0.000000
                              0.302300    -0.002585    0.572759    1.000000
   9.1 A     2  x            17.700000     0.043018
                              3.854000     0.228913
                              1.046000     0.508728
                              0.275300     0.460531
  10.1 A     2  y            17.700000     0.043018
                              3.854000     0.228913
                              1.046000     0.508728
                              0.275300     0.460531
  11.1 A     2  z            17.700000     0.043018
                              3.854000     0.228913
                              1.046000     0.508728
                              0.275300     0.460531
  12.1 A     2  x            17.700000     0.000000
                              3.854000     0.000000
                              1.046000     0.000000
                              0.275300     1.000000
  13.1 A     2  y            17.700000     0.000000
                              3.854000     0.000000
                              1.046000     0.000000
                              0.275300     1.000000
  14.1 A     2  z            17.700000     0.000000
                              3.854000     0.000000
                              1.046000     0.000000
                              0.275300     1.000000
  15.1 A     2  xx            1.185000     1.000000
  16.1 A     2  yy            1.185000     1.000000
  17.1 A     2  zz            1.185000     1.000000
  18.1 A     2  xy            1.185000     1.000000
  19.1 A     2  xz            1.185000     1.000000
  20.1 A     2  yz            1.185000     1.000000
  21.1 A     3  s            13.010000     0.019685    0.000000
  22.1 A                      1.962000     0.137977    0.000000
                              0.444600     0.478148    0.000000
                              0.122000     0.501240    1.000000
  23.1 A     3  x             0.727000     1.000000
  24.1 A     3  y             0.727000     1.000000
  25.1 A     3  z             0.727000     1.000000

 NUCLEAR CHARGE:                   10
 NUMBER OF PRIMITIVE AOS:          41
 NUMBER OF SYMMETRY AOS:           41
 NUMBER OF CONTRACTIONS:           25   (  25A   )
 NUMBER OF CORE ORBITALS:           1   (   1A   )
 NUMBER OF VALENCE ORBITALS:        6   (   6A   )


 NUCLEAR REPULSION ENERGY    8.06498289

 EXTRA SYMMETRY OF AOS IN SYMMETRY 1:   1 1 2 1 1 1 1 1 2 1   1 2 1 1 1 1 1 2 2 1   1 1 2 1 1

 Eigenvalues of metric

         1 0.206E-01 0.570E-01 0.593E-01 0.816E-01 0.106E+00 0.179E+00 0.183E+00 0.220E+00


 Contracted 2-electron integrals neglected if value below      1.0D-11
 AO integral compression algorithm  1   Integral accuracy      1.0D-11

     0.262 MB (compressed) written to integral file ( 82.8%)


 NUMBER OF SORTED TWO-ELECTRON INTEGRALS:      52975.     BUFFER LENGTH:  32768
 NUMBER OF SEGMENTS:   1  SEGMENT LENGTH:      52975      RECORD LENGTH: 524288

 Memory used in sort:       0.61 MW

 SORT1 READ       73693. AND WROTE       25620. INTEGRALS IN      1 RECORDS. CPU TIME:     0.00 SEC, REAL TIME:     0.01 SEC
 SORT2 READ       25620. AND WROTE       52975. INTEGRALS IN      1 RECORDS. CPU TIME:     0.02 SEC, REAL TIME:     0.02 SEC

 FILE SIZES:   FILE 1:     4.0 MBYTE,  FILE 4:     4.2 MBYTE,   TOTAL:      8.2 MBYTE

 OPERATOR DM      FOR CENTER  0  COORDINATES:    0.000000    0.000000    0.000000


 **********************************************************************************************************************************
 DATASETS  * FILE   NREC   LENGTH (MB)   RECORD NAMES
              1      19        3.89       500      610      700      900      950      970     1000      129      960     1100   
                                          VAR    BASINP    GEOM    SYMINP    ZMAT    AOBASIS   BASIS     P2S    ABASIS      S 
                                         1400     1410     1200     1210     1080     1600     1650     1300     1700   
                                           T        V       H0       H01     AOSYM     SMH    MOLCAS    ERIS     OPER   

 PROGRAMS   *        TOTAL       INT
 CPU TIMES  *         0.23      0.09
 REAL TIME  *         0.44 SEC
 DISK USED  *         8.50 MB      
 **********************************************************************************************************************************

1PROGRAM * RHF-SCF (CLOSED SHELL)       Authors: W. Meyer, H.-J. Werner


 NUMBER OF ELECTRONS:       5+    5-    SPACE SYMMETRY=1    SPIN SYMMETRY: Singlet 
 CONVERGENCE THRESHOLDS:    1.00E-05 (Density)    1.00E-07 (Energy)
 MAX. NUMBER OF ITERATIONS:       60
 INTERPOLATION TYPE:            DIIS
 INTERPOLATION STEPS:              2 (START)      1 (STEP)
 LEVEL SHIFTS:                  0.00 (CLOSED)  0.00 (OPEN) 

 Number of closed-shell orbitals:    5 (   5 )


 Orbital guess generated from atomic densities. Full valence occupancy:    7

 Molecular orbital dump at record        2100.2

 ITERATION    DDIFF          GRAD             ENERGY        2-EL.EN.            DIPOLE MOMENTS         DIIS   ORB.
    1      0.000D+00      0.000D+00       -75.94775921     76.447910   -0.00000   -0.00000    1.26656    0    start
    2      0.000D+00      0.219D-01       -75.97935982     72.554908   -0.00000    0.00000    0.75188    1    diag
    3      0.437D-01      0.139D-01       -75.99199285     74.163596   -0.00000    0.00000    0.85169    2    diag
    4      0.169D-01      0.144D-02       -75.99235719     74.068773   -0.00000   -0.00000    0.82754    3    diag
    5      0.313D-02      0.497D-03       -75.99239864     74.084023   -0.00000    0.00000    0.81916    4    diag
    6      0.124D-02      0.735D-04       -75.99239989     74.082538   -0.00000    0.00000    0.81767    5    diag
    7      0.207D-03      0.117D-04       -75.99239992     74.082562   -0.00000    0.00000    0.81743    6    diag
    8      0.353D-04      0.226D-05       -75.99239992     74.082545   -0.00000    0.00000    0.81740    7    diag
    9      0.661D-05      0.586D-06       -75.99239992     74.082551    0.00000    0.00000    0.81740    0    orth

 Final occupancy:   5

 !RHF STATE 1.1 Energy                -75.992399920894
 Nuclear energy                         8.06498289
 One-electron energy                 -121.09865807
 Two-electron energy                   37.04127526
 Virial quotient                       -1.00598825
 !RHF STATE 1.1 Dipole moment           0.00000000     0.00000000     0.81739941
 Dipole moment /Debye                   0.00000000     0.00000000     2.07748600

 ELECTRON ORBITALS
 =================


   Orb  Occ    Energy  Couls-En    Coefficients

                                   1 s       1 s       1 x       1 y       1 z       2 s       2 s       2 s       2 x       2 y    
                                   2 z       2 x       2 y       2 z       2 xx      2 yy      2 zz      2 xy      2 xz      2 yz   
                                   3 s       3 s       3 x       3 y       3 z    

   1.1   2   -20.5705  -53.4633  0.000348  0.000072  0.000000 -0.000138  0.000163  1.000371  0.003252 -0.000809 -0.000000 -0.000000
                                 0.002008  0.000000  0.000000 -0.001573 -0.001008 -0.001217 -0.001172  0.000000 -0.000000 -0.000000
                                 0.000348  0.000072 -0.000000  0.000138  0.000163

   2.1   2    -1.2776   -8.9776  0.242325 -0.106809 -0.000000  0.027810 -0.014869 -0.005750  0.892830 -0.057293 -0.000000  0.000000
                                 0.076872  0.000000  0.000000 -0.031189 -0.000845  0.004543  0.002909  0.000000  0.000000  0.000000
                                 0.242325 -0.106809  0.000000 -0.027810 -0.014869

   3.1   2    -0.6420   -6.9381 -0.517847  0.146815 -0.000000 -0.025638  0.028188 -0.000000 -0.000000  0.000000 -0.000000  0.687609
                                 0.000000 -0.000000 -0.064805  0.000000 -0.000000  0.000000  0.000000 -0.000000 -0.000000  0.022655
                                 0.517847 -0.146815  0.000000 -0.025638 -0.028188

   4.1   2    -0.5334   -7.1794  0.340941 -0.098433  0.000000  0.026914  0.005829  0.001804 -0.271739 -0.152954 -0.000000 -0.000000
                                 0.784717 -0.000000  0.000000  0.026940 -0.004786  0.004733  0.023364 -0.000000 -0.000000  0.000000
                                 0.340941 -0.098433  0.000000 -0.026914  0.005829

   5.1   2    -0.4846   -7.4989  0.000000 -0.000000  0.025529  0.000000 -0.000000 -0.000000 -0.000000  0.000000  0.926644 -0.000000
                                 0.000000  0.073386 -0.000000  0.000000 -0.000000  0.000000  0.000000  0.000000  0.015849 -0.000000
                                 0.000000  0.000000  0.025529  0.000000  0.000000

   6.1   0     0.1569   -3.4024  0.178873  0.682999 -0.000000  0.003417 -0.008922  0.051320 -0.179848 -0.832423 -0.000000  0.000000
                                -0.341482 -0.000000  0.000000 -0.219515  0.035096  0.031114  0.023054  0.000000 -0.000000  0.000000
                                 0.178873  0.682999  0.000000 -0.003417 -0.008922

   7.1   0     0.2325   -3.1939  0.101308  1.137318  0.000000  0.011314 -0.004354  0.000000  0.000000 -0.000000  0.000000  0.469730
                                 0.000000  0.000000  0.448545 -0.000000  0.000000  0.000000  0.000000 -0.000000  0.000000  0.011408
                                -0.101308 -1.137318 -0.000000  0.011314  0.004354

   8.1   0     0.7250   -3.0217 -1.585386  1.629077  0.000000  0.044235 -0.123837 -0.000000 -0.000000  0.000000 -0.000000 -0.441505
                                -0.000000  0.000000 -0.044503  0.000000 -0.000000  0.000000 -0.000000 -0.000000 -0.000000  0.093796
                                 1.585386 -1.629077 -0.000000  0.044235  0.123837

   9.1   0     0.7306   -2.9381 -1.497351  1.393127  0.000000  0.186792 -0.019421  0.075339  0.470939 -0.606833 -0.000000 -0.000000
                                 0.411615  0.000000 -0.000000 -0.121253  0.078751 -0.067513  0.022028 -0.000000  0.000000  0.000000
                                -1.497351  1.393127  0.000000 -0.186792 -0.019421

  10.1   0     1.1660   -3.6063 -0.502050  0.155001  0.000000 -0.056811  0.291343  0.026149  0.252017  0.141897 -0.000000 -0.000000
                                -1.163560  0.000000 -0.000000  1.600221  0.037003  0.016016  0.063283  0.000000  0.000000  0.000000
                                -0.502050  0.155001  0.000000  0.056811  0.291343

  11.1   0     1.1901   -4.0388  0.000000 -0.000000  0.117400 -0.000000 -0.000000 -0.000000 -0.000000 -0.000000 -1.380885  0.000000
                                 0.000000  1.573044 -0.000000 -0.000000 -0.000000 -0.000000 -0.000000  0.000000  0.007093  0.000000
                                 0.000000 -0.000000  0.117400 -0.000000 -0.000000

  12.1   0     1.2590   -3.0825  0.524676  0.358360  0.000000  0.359825 -0.064692 -0.000000 -0.000000  0.000000 -0.000000 -1.108102
                                 0.000000  0.000000  2.104209 -0.000000  0.000000 -0.000000  0.000000 -0.000000 -0.000000 -0.004552
                                -0.524676 -0.358360 -0.000000  0.359825  0.064692

  13.1   0     1.4392   -1.6511 -0.000000  0.000000  0.677965 -0.000000 -0.000000  0.000000  0.000000 -0.000000 -0.000000  0.000000
                                -0.000000  0.000000 -0.000000  0.000000  0.000000  0.000000  0.000000 -0.144432 -0.000000 -0.000000
                                 0.000000  0.000000 -0.677965  0.000000 -0.000000

  14.1   0     1.4699   -1.9947  0.147326 -0.361273  0.000000  0.262621  0.460527 -0.399073 -1.675043  2.450325  0.000000  0.000000
                                 0.256634 -0.000000 -0.000000 -0.528968 -0.186887 -0.273542 -0.057277 -0.000000  0.000000  0.000000
                                 0.147326 -0.361273 -0.000000 -0.262621  0.460527

  15.1   0     1.6790   -1.1365 -0.000000  0.000000  0.742451  0.000000 -0.000000 -0.000000  0.000000 -0.000000  0.276974 -0.000000
                                -0.000000 -0.815439  0.000000  0.000000 -0.000000 -0.000000 -0.000000 -0.000000  0.158712  0.000000
                                -0.000000 -0.000000  0.742451  0.000000  0.000000

  16.1   0     1.7691   -1.7294 -1.022598  0.238484 -0.000000 -0.290070 -0.297465 -0.604589 -2.362546  3.847542 -0.000000  0.000000
                                -0.432474  0.000000 -0.000000  1.251448 -0.109852 -0.231994 -0.381497  0.000000  0.000000  0.000000
                                -1.022598  0.238484  0.000000  0.290070 -0.297465

  17.1   0     1.7913   -0.7749 -0.671590  0.225880 -0.000000  0.372262  0.661519  0.000000  0.000000 -0.000000 -0.000000  0.345884
                                 0.000000  0.000000 -1.167622 -0.000000  0.000000  0.000000  0.000000  0.000000  0.000000  0.018853
                                 0.671590 -0.225880  0.000000  0.372262 -0.661519

  18.1   0     2.1793   -1.2114  0.249036  0.215340 -0.000000  0.635827 -0.538006  0.000000  0.000000 -0.000000 -0.000000  0.984989
                                -0.000000  0.000000 -0.208683  0.000000  0.000000 -0.000000  0.000000 -0.000000 -0.000000 -0.116812
                                -0.249036 -0.215340  0.000000  0.635827  0.538006

  19.1   0     2.2141   -0.9671  0.746462 -0.115167  0.000000  0.817389 -0.421179  0.085110  0.052408 -1.381526 -0.000000 -0.000000
                                -0.692436  0.000000  0.000000 -0.089790 -0.225624  0.125396  0.069297 -0.000000 -0.000000 -0.000000
                                 0.746462 -0.115167 -0.000000 -0.817389 -0.421179

  20.1   0     3.1604   -0.6226 -0.000000  0.000000 -0.291750  0.000000 -0.000000  0.000000 -0.000000 -0.000000 -0.071887 -0.000000
                                -0.000000  0.247073  0.000000  0.000000  0.000000  0.000000 -0.000000 -0.000000  1.010959  0.000000
                                 0.000000  0.000000 -0.291750 -0.000000 -0.000000

  21.1   0     3.2335   -0.4686  0.000000 -0.000000  0.299138 -0.000000  0.000000 -0.000000 -0.000000  0.000000 -0.000000 -0.000000
                                 0.000000  0.000000  0.000000 -0.000000  0.000000  0.000000  0.000000  1.029288  0.000000 -0.000000
                                -0.000000  0.000000 -0.299138 -0.000000 -0.000000

  22.1   0     3.3107   -0.2107 -0.366604  0.142617  0.000000 -0.310635 -0.239686 -0.078722 -0.261149  0.611581 -0.000000 -0.000000
                                -0.048515  0.000000  0.000000  0.435709 -0.497413 -0.562041  1.011146 -0.000000  0.000000  0.000000
                                -0.366604  0.142617  0.000000  0.310635 -0.239686

  23.1   0     3.7610    0.8190  1.370841 -0.499458 -0.000000  0.561901 -0.409566  0.244191  0.684531 -2.241792 -0.000000 -0.000000
                                -0.273230  0.000000 -0.000000 -0.585239  1.056848 -0.908913  0.070805  0.000000  0.000000  0.000000
                                 1.370841 -0.499458  0.000000 -0.561901 -0.409566

  24.1   0     3.9733    1.1434  1.240517 -0.369151  0.000000  0.533022 -0.403301 -0.000000 -0.000000 -0.000000  0.000000  0.315222
                                -0.000000 -0.000000  0.862296 -0.000000  0.000000  0.000000 -0.000000  0.000000  0.000000  1.240291
                                -1.240517  0.369151  0.000000  0.533022  0.403301

  25.1   0     5.8582    3.3022  0.070227 -0.213792 -0.000000  0.107311 -0.092065  0.354136  3.350144 -0.299650  0.000000  0.000000
                                -0.129244 -0.000000  0.000000  0.141860 -1.400621 -1.485264 -1.429715 -0.000000 -0.000000  0.000000
                                 0.070227 -0.213792  0.000000 -0.107311 -0.092065

 HOMO      5.1    -0.484624 =     -13.1873eV
 LUMO      6.1     0.156917 =       4.2699eV
 LUMO-HOMO         0.641541 =      17.4572eV


 **********************************************************************************************************************************
 DATASETS  * FILE   NREC   LENGTH (MB)   RECORD NAMES
              1      19        3.89       500      610      700      900      950      970     1000      129      960     1100   
                                          VAR    BASINP    GEOM    SYMINP    ZMAT    AOBASIS   BASIS     P2S    ABASIS      S 
                                         1400     1410     1200     1210     1080     1600     1650     1300     1700   
                                           T        V       H0       H01     AOSYM     SMH    MOLCAS    ERIS     OPER   

              2       4        0.33       700     1000      520     2100   
                                         GEOM     BASIS   MCVARS     RHF  

 PROGRAMS   *        TOTAL        HF       INT
 CPU TIMES  *         0.26      0.03      0.09
 REAL TIME  *         0.49 SEC
 DISK USED  *         8.50 MB      
 **********************************************************************************************************************************

        HF-SCF  
    -75.99239992
 **********************************************************************************************************************************
 Variable memory released
