
                                 *****************
                                 * O   R   C   A *
                                 *****************

           --- An Ab Initio, DFT and Semiempirical electronic structure package ---

                  #######################################################
                  #                        -***-                        #
                  #          Department of theory and spectroscopy      #
                  #               Directorship: Frank Neese             #
                  #        Max Planck Institute fuer Kohlenforschung    #
                  #                Kaiser Wilhelm Platz 1               #
                  #                 D-45470 Muelheim/Ruhr               #
                  #                      Germany                        #
                  #                                                     #
                  #                  All rights reserved                #
                  #                        -***-                        #
                  #######################################################


                         Program Version 4.1.0  - RELEASE  -


 With contributions from (in alphabetic order):
   Daniel Aravena         : Magnetic Properties
   Michael Atanasov       : Ab Initio Ligand Field Theory
   Alexander A. Auer      : GIAO ZORA
   Ute Becker             : Parallelization
   Giovanni Bistoni       : ED, Open-shell LED
   Martin Brehm           : Molecular dynamics
   Dmytro Bykov           : SCF Hessian
   Vijay G. Chilkuri      : MRCI spin determinant printing
   Dipayan Datta          : RHF DLPNO-CCSD density
   Achintya Kumar Dutta   : EOM-CC, STEOM-CC
   Dmitry Ganyushin       : Spin-Orbit,Spin-Spin,Magnetic field MRCI
   Miquel Garcia          : C-PCM Hessian
   Yang Guo               : DLPNO-NEVPT2, CIM, IAO-localization
   Andreas Hansen         : Spin unrestricted coupled pair/coupled cluster methods
   Benjamin Helmich-Paris : CASSCF linear response (MC-RPA)
   Lee Huntington         : MR-EOM, pCC
   Robert Izsak           : Overlap fitted RIJCOSX, COSX-SCS-MP3, EOM
   Christian Kollmar      : KDIIS, OOCD, Brueckner-CCSD(T), CCSD density
   Simone Kossmann        : Meta GGA functionals, TD-DFT gradient, OOMP2, MP2 Hessian
   Martin Krupicka        : AUTO-CI
   Lucas Lang             : DCDCAS
   Dagmar Lenk            : GEPOL surface, SMD
   Dimitrios Liakos       : Extrapolation schemes; parallel MDCI
   Dimitrios Manganas     : ROCIS; embedding schemes
   Dimitrios Pantazis     : SARC Basis sets
   Taras Petrenko         : DFT Hessian,TD-DFT gradient, ASA, ECA, R-Raman, ABS, FL, XAS/XES, NRVS
   Peter Pinski           : DLPNO-MP2, DLPNO-MP2 Gradient
   Christoph Reimann      : Effective Core Potentials
   Marius Retegan         : Local ZFS, SOC
   Christoph Riplinger    : Optimizer, TS searches, QM/MM, DLPNO-CCSD(T), (RO)-DLPNO pert. Triples
   Tobias Risthaus        : Range-separated hybrids, TD-DFT gradient, RPA, STAB
   Michael Roemelt        : Restricted open shell CIS
   Masaaki Saitow         : Open-shell DLPNO
   Barbara Sandhoefer     : DKH picture change effects
   Avijit Sen             : IP-ROCIS
   Kantharuban Sivalingam : CASSCF convergence, NEVPT2, FIC-MRCI
   Bernardo de Souza      : ESD, SOC TD-DFT
   Georgi Stoychev        : AutoAux, RI-MP2 NMR
   Willem Van den Heuvel  : Paramagnetic NMR
   Boris Wezisla          : Elementary symmetry handling
   Frank Wennmohs         : Technical directorship


 We gratefully acknowledge several colleagues who have allowed us to
 interface, adapt or use parts of their codes:
   Stefan Grimme, W. Hujo, H. Kruse,             : VdW corrections, initial TS optimization,
                  C. Bannwarth                     DFT functionals, gCP, sTDA/sTD-DF
   Ed Valeev                                     : LibInt (2-el integral package), F12 methods
   Garnet Chan, S. Sharma, J. Yang, R. Olivares  : DMRG
   Ulf Ekstrom                                   : XCFun DFT Library
   Mihaly Kallay                                 : mrcc  (arbitrary order and MRCC methods)
   Andreas Klamt, Michael Diedenhofen            : otool_cosmo (COSMO solvation model)
   Jiri Pittner, Ondrej Demel                    : Mk-CCSD
   Frank Weinhold                                : gennbo (NPA and NBO analysis)
   Christopher J. Cramer and Donald G. Truhlar   : smd solvation model
   Lars Goerigk                                  : TD-DFT with DH, B97 family of functionals
   V. Asgeirsson, H. Jonsson                     : NEB implementation
   FAccTs GmbH                                   : IRC, NEB, NEB-TS, Multilevel


 Your calculation uses the libint2 library for the computation of 2-el integrals
 For citations please refer to: http://libint.valeyev.net

 This ORCA versions uses:
   CBLAS   interface :  Fast vector & matrix operations
   LAPACKE interface :  Fast linear algebra routines
   SCALAPACK package :  Parallel linear algebra routines


----- Orbital basis set information -----
Your calculation utilizes the basis: STO-3G
   H-Ne       : W. J. Hehre, R. F. Stewart and J. A. Pople, J. Chem. Phys. 2657 (1969).
   Na-Ar      : W. J. Hehre, R. Ditchfield, R. F. Stewart and J. A. Pople, J. Chem. Phys. 2769 (1970).
   K,Ca,Ga-Kr : W. J. Pietro, B. A. Levy, W. J. Hehre and R. F. Stewart, J. Am. Chem. Soc. 19, 2225 (1980).
   Sc-Zn,Y-Cd : W. J. Pietro and W. J. Hehre, J. Comp. Chem. 4, 241 (1983).

================================================================================
                                        WARNINGS
                       Please study these warnings very carefully!
================================================================================


INFO   : the flag for use of LIBINT has been found!

================================================================================
                                       INPUT FILE
================================================================================
NAME = water_mp3.inp
|  1> ! MP3 STO-3G
|  2> 
|  3> %pal nprocs 4 end
|  4> 
|  5> %scf ConvForced True end
|  6> 
|  7> *xyz 0 1
|  8>   O      1.784914    1.262422    0.511985
|  9>   H      2.648237    1.072929    0.131631
| 10>   H      1.183168    1.256816   -0.238835
| 11> *
| 12> 
| 13>                          ****END OF INPUT****
================================================================================

                       ****************************
                       * Single Point Calculation *
                       ****************************

---------------------------------
CARTESIAN COORDINATES (ANGSTROEM)
---------------------------------
  O      1.784914    1.262422    0.511985
  H      2.648237    1.072929    0.131631
  H      1.183168    1.256816   -0.238835

----------------------------
CARTESIAN COORDINATES (A.U.)
----------------------------
  NO LB      ZA    FRAG     MASS         X           Y           Z
   0 O     8.0000    0    15.999    3.372999    2.385632    0.967511
   1 H     1.0000    0     1.008    5.004443    2.027542    0.248747
   2 H     1.0000    0     1.008    2.235863    2.375038   -0.451333

--------------------------------
INTERNAL COORDINATES (ANGSTROEM)
--------------------------------
 O      0   0   0     0.000000000000     0.00000000     0.00000000
 H      1   0   0     0.962238725418     0.00000000     0.00000000
 H      1   2   0     0.962216372835   104.56643206     0.00000000

---------------------------
INTERNAL COORDINATES (A.U.)
---------------------------
 O      0   0   0     0.000000000000     0.00000000     0.00000000
 H      1   0   0     1.818367666493     0.00000000     0.00000000
 H      1   2   0     1.818325426233   104.56643206     0.00000000

---------------------
BASIS SET INFORMATION
---------------------
There are 2 groups of distinct atoms

 Group   1 Type O   : 6s3p contracted to 2s1p pattern {33/3}
 Group   2 Type H   : 3s contracted to 1s pattern {3}

Atom   0O    basis set group =>   1
Atom   1H    basis set group =>   2
Atom   2H    basis set group =>   2


           ************************************************************
           *        Program running with 4 parallel MPI-processes     *
           *              working on a common directory               *
           ************************************************************
------------------------------------------------------------------------------
                           ORCA GTO INTEGRAL CALCULATION
------------------------------------------------------------------------------

                         BASIS SET STATISTICS AND STARTUP INFO

 # of primitive gaussian shells          ...   15
 # of primitive gaussian functions       ...   21
 # of contracted shells                  ...    5
 # of contracted basis functions         ...    7
 Highest angular momentum                ...    1
 Maximum contraction depth               ...    3
 Integral package used                   ... LIBINT
 Integral threshhold            Thresh   ...  1.000e-10
 Primitive cut-off              TCut     ...  1.000e-11


------------------------------ INTEGRAL EVALUATION ----------------------------


 * One electron integrals 
 Pre-screening matrix                    ... done
 Shell pair data                         ... done (   0.000 sec)



           ************************************************************
           *        Program running with 4 parallel MPI-processes     *
           *              working on a common directory               *
           ************************************************************
-------------------------------------------------------------------------------
                                 ORCA SCF
-------------------------------------------------------------------------------

------------
SCF SETTINGS
------------
Hamiltonian:
 Ab initio Hamiltonian  Method          .... Hartree-Fock(GTOs)


General Settings:
 Integral files         IntName         .... water_mp3
 Hartree-Fock type      HFTyp           .... RHF
 Total Charge           Charge          ....    0
 Multiplicity           Mult            ....    1
 Number of Electrons    NEL             ....   10
 Basis Dimension        Dim             ....    7
 Nuclear Repulsion      ENuc            ....      9.1468129872 Eh

Convergence Acceleration:
 DIIS                   CNVDIIS         .... on
   Start iteration      DIISMaxIt       ....    12
   Startup error        DIISStart       ....  0.200000
   # of expansion vecs  DIISMaxEq       ....     5
   Bias factor          DIISBfac        ....   1.050
   Max. coefficient     DIISMaxC        ....  10.000
 Newton-Raphson         CNVNR           .... off
 SOSCF                  CNVSOSCF        .... on
   Start iteration      SOSCFMaxIt      ....   150
   Startup grad/error   SOSCFStart      ....  0.003300
 Level Shifting         CNVShift        .... on
   Level shift para.    LevelShift      ....    0.2500
   Turn off err/grad.   ShiftErr        ....    0.0010
 Zerner damping         CNVZerner       .... off
 Static damping         CNVDamp         .... on
   Fraction old density DampFac         ....    0.7000
   Max. Damping (<1)    DampMax         ....    0.9800
   Min. Damping (>=0)   DampMin         ....    0.0000
   Turn off err/grad.   DampErr         ....    0.1000
 Fernandez-Rico         CNVRico         .... off

SCF Procedure:
 Maximum # iterations   MaxIter         ....   125
 SCF integral mode      SCFMode         .... Direct
   Integral package                     .... LIBINT
 Reset frequency        DirectResetFreq ....    20
 Integral Threshold     Thresh          ....  1.000e-10 Eh
 Primitive CutOff       TCut            ....  1.000e-11 Eh

Convergence Tolerance:
 Convergence Check Mode ConvCheckMode   .... Total+1el-Energy
 Convergence forced     ConvForced      .... 1
 Energy Change          TolE            ....  1.000e-06 Eh
 1-El. energy change                    ....  1.000e-03 Eh
 Orbital Gradient       TolG            ....  5.000e-05
 Orbital Rotation angle TolX            ....  5.000e-05
 DIIS Error             TolErr          ....  1.000e-06


Diagonalization of the overlap matrix:
Smallest eigenvalue                        ... 3.455e-01
Time for diagonalization                   ...    0.000 sec
Threshold for overlap eigenvalues          ... 1.000e-08
Number of eigenvalues below threshold      ... 0
Time for construction of square roots      ...    0.000 sec
Total time needed                          ...    0.001 sec

-------------------
DFT GRID GENERATION
-------------------

General Integration Accuracy     IntAcc      ...  4.340
Radial Grid Type                 RadialGrid  ... Gauss-Chebyshev
Angular Grid (max. acc.)         AngularGrid ... Lebedev-110
Angular grid pruning method      GridPruning ... 3 (G Style)
Weight generation scheme         WeightScheme... Becke
Basis function cutoff            BFCut       ...    1.0000e-10
Integration weight cutoff        WCut        ...    1.0000e-14
Grids for H and He will be reduced by one unit

# of grid points (after initial pruning)     ...   3304 (   0.0 sec)
# of grid points (after weights+screening)   ...   3279 (   0.0 sec)
nearest neighbour list constructed           ...    0.0 sec
Grid point re-assignment to atoms done       ...    0.0 sec
Grid point division into batches done        ...    0.0 sec
Reduced shell lists constructed in    0.0 sec

Total number of grid points                  ...     3279
Total number of batches                      ...       53
Average number of points per batch           ...       61
Average number of grid points per atom       ...     1093
Average number of shells per batch           ...     4.40 (88.00%)
Average number of basis functions per batch  ...     6.27 (89.52%)
Average number of large shells per batch     ...     4.33 (98.48%)
Average number of large basis fcns per batch ...     6.20 (98.94%)
Maximum spatial batch extension              ...  15.12, 16.41, 14.11 au
Average spatial batch extension              ...   1.41,  1.49,  1.38 au

Time for grid setup =    0.007 sec

------------------------------
INITIAL GUESS: MODEL POTENTIAL
------------------------------
Loading Hartree-Fock densities                     ... done
Calculating cut-offs                               ... done
Setting up the integral package                    ... done
Initializing the effective Hamiltonian             ... done
Starting the Coulomb interaction                   ... done (   0.0 sec)
Reading the grid                                   ... done
Mapping shells                                     ... done
Starting the XC term evaluation                    ... done (   0.0 sec)
Transforming the Hamiltonian                       ... done (   0.0 sec)
Diagonalizing the Hamiltonian                      ... done (   0.0 sec)
Back transforming the eigenvectors                 ... done (   0.0 sec)
Now organizing SCF variables                       ... done
                      ------------------
                      INITIAL GUESS DONE (   0.2 sec)
                      ------------------
--------------
SCF ITERATIONS
--------------
ITER       Energy         Delta-E        Max-DP      RMS-DP      [F,P]     Damp
               ***  Starting incremental Fock matrix formation  ***
  0    -74.9043980748   0.000000000000 0.07435289  0.01858003  0.1929599 0.7000
  1    -74.9223395594  -0.017941484567 0.06240773  0.01591093  0.1422352 0.7000
                               ***Turning on DIIS***
  2    -74.9350030044  -0.012663445047 0.14873057  0.03818335  0.0989798 0.0000
  3    -74.9406580038  -0.005654999422 0.01233754  0.00244052  0.0076985 0.0000
                      *** Initiating the SOSCF procedure ***
                           *** Shutting down DIIS ***
                      *** Re-Reading the Fockian *** 
                      *** Removing any level shift *** 
ITER      Energy       Delta-E        Grad      Rot      Max-DP    RMS-DP
  4    -74.95946282  -0.0188048117  0.002948  0.002948  0.005581  0.000960
               *** Restarting incremental Fock matrix formation ***
  5    -74.96357318  -0.0041103623  0.000572  0.000393  0.001634  0.000306
                 **** Energy Check signals convergence ****
              ***Rediagonalizing the Fockian in SOSCF/NRSCF***

               *****************************************************
               *                     SUCCESS                       *
               *           SCF CONVERGED AFTER   6 CYCLES          *
               *****************************************************


----------------
TOTAL SCF ENERGY
----------------

Total Energy       :          -74.96357410 Eh           -2039.86256 eV

Components:
Nuclear Repulsion  :            9.14681299 Eh             248.89744 eV
Electronic Energy  :          -84.11038709 Eh           -2288.75999 eV
One Electron Energy:         -122.28764576 Eh           -3327.61601 eV
Two Electron Energy:           38.17725867 Eh            1038.85602 eV

Virial components:
Potential Energy   :         -149.54075322 Eh           -4069.21077 eV
Kinetic Energy     :           74.57717912 Eh            2029.34821 eV
Virial Ratio       :            2.00518114


---------------
SCF CONVERGENCE
---------------

  Last Energy change         ...   -9.2023e-07  Tolerance :   1.0000e-06
  Last MAX-Density change    ...    8.6322e-04  Tolerance :   1.0000e-05
  Last RMS-Density change    ...    1.8081e-04  Tolerance :   1.0000e-06
  Last Orbital Gradient      ...    1.8631e-04  Tolerance :   5.0000e-05
  Last Orbital Rotation      ...    2.7907e-04  Tolerance :   5.0000e-05

             **** THE GBW FILE WAS UPDATED (water_mp3.gbw) ****
             **** DENSITY FILE WAS UPDATED (water_mp3.scfp.tmp) ****
             **** ENERGY FILE WAS UPDATED (water_mp3.en.tmp) ****
----------------
ORBITAL ENERGIES
----------------

  NO   OCC          E(Eh)            E(eV) 
   0   2.0000     -20.242233      -550.8192 
   1   2.0000      -1.265747       -34.4427 
   2   2.0000      -0.615339       -16.7442 
   3   2.0000      -0.452291       -12.3075 
   4   2.0000      -0.390844       -10.6354 
   5   0.0000       0.600569        16.3423 
   6   0.0000       0.736617        20.0444 

                    ********************************
                    * MULLIKEN POPULATION ANALYSIS *
                    ********************************

-----------------------
MULLIKEN ATOMIC CHARGES
-----------------------
   0 O :   -0.361723
   1 H :    0.180857
   2 H :    0.180866
Sum of atomic charges:   -0.0000000

--------------------------------
MULLIKEN REDUCED ORBITAL CHARGES
--------------------------------
  0 O s       :     3.828439  s :     3.828439
      pz      :     1.449933  p :     4.533284
      px      :     1.111652
      py      :     1.971699
  1 H s       :     0.819143  s :     0.819143
  2 H s       :     0.819134  s :     0.819134


                     *******************************
                     * LOEWDIN POPULATION ANALYSIS *
                     *******************************

----------------------
LOEWDIN ATOMIC CHARGES
----------------------
   0 O :   -0.250698
   1 H :    0.125347
   2 H :    0.125351

-------------------------------
LOEWDIN REDUCED ORBITAL CHARGES
-------------------------------
  0 O s       :     3.675400  s :     3.675400
      pz      :     1.463598  p :     4.575298
      px      :     1.139222
      py      :     1.972478
  1 H s       :     0.874653  s :     0.874653
  2 H s       :     0.874649  s :     0.874649


                      *****************************
                      * MAYER POPULATION ANALYSIS *
                      *****************************

  NA   - Mulliken gross atomic population
  ZA   - Total nuclear charge
  QA   - Mulliken gross atomic charge
  VA   - Mayer's total valence
  BVA  - Mayer's bonded valence
  FA   - Mayer's free valence

  ATOM       NA         ZA         QA         VA         BVA        FA
  0 O      8.3617     8.0000    -0.3617     1.9097     1.9097    -0.0000
  1 H      0.8191     1.0000     0.1809     0.9673     0.9673     0.0000
  2 H      0.8191     1.0000     0.1809     0.9673     0.9673    -0.0000

  Mayer bond orders larger than 0.1
B(  0-O ,  1-H ) :   0.9549 B(  0-O ,  2-H ) :   0.9549 

-------
TIMINGS
-------

Total SCF time: 0 days 0 hours 0 min 1 sec 

Total time                  ....       1.964 sec
Sum of individual times     ....       1.511 sec  ( 76.9%)

Fock matrix formation       ....       1.291 sec  ( 65.7%)
Diagonalization             ....       0.000 sec  (  0.0%)
Density matrix formation    ....       0.007 sec  (  0.4%)
Population analysis         ....       0.022 sec  (  1.1%)
Initial guess               ....       0.172 sec  (  8.8%)
Orbital Transformation      ....       0.000 sec  (  0.0%)
Orbital Orthonormalization  ....       0.000 sec  (  0.0%)
DIIS solution               ....       0.011 sec  (  0.6%)
SOSCF solution              ....       0.000 sec  (  0.0%)


           ************************************************************
           *        Program running with 4 parallel MPI-processes     *
           *              working on a common directory               *
           ************************************************************


------------------------------------------------------------------------------- 
                              ORCA-MATRIX DRIVEN CI                            
------------------------------------------------------------------------------- 

--------------------------------
AUTOMATIC CHOICE OF INCORE LEVEL
--------------------------------

Memory available                           ...    256.00 MB
Memory needed for S+T                      ...      0.00 MB
Memory needed for J+K                      ...      0.00 MB
Memory needed for DIIS                     ...      0.01 MB
Memory needed for 3-ext                    ...      0.00 MB
Memory needed for 4-ext                    ...      0.00 MB
Memory needed for triples                  ...      0.00 MB
 -> Final InCoreLevel    ... 5

Wavefunction type
-----------------
Correlation treatment                      ...      MP       
Order of perturbation theory               ... 3
Single excitations                         ... OFF
Orbital optimization                       ... OFF
Calculation of Brueckner orbitals          ... OFF
Perturbative triple excitations            ... OFF
Calculation of F12 correction              ... OFF
Frozen core treatment                      ... chemical core (2 el)
Reference Wavefunction                     ... RHF
  Internal Orbitals:     1 ...    4 (  4 MO's/  8 electrons)
  Virtual  Orbitals:     5 ...    6 (  2 MO's              )
Number of AO's                             ...      7
Number of electrons                        ...     10
Number of correlated electrons             ...      8

Algorithmic settings
--------------------
Integral transformation                    ... AO direct full transformation
K(C) Formation                             ... FULL-MO TRAFO
Maximum number of iterations               ...        50
Convergence tolerance (max. residuum)      ... 2.500e-05
Level shift for amplitude update           ... 2.000e-01
Maximum number of DIIS vectors             ...         7
DIIS turned on at iteration                ...         0
Damping before turning on DIIS             ...     0.500
Damping after turning on DIIS              ...     0.000
Pair specific amplitude update             ... OFF
Natural orbital iterations                 ... OFF
Perturbative natural orbital generation    ... OFF
Printlevel                                 ... 2

Memory handling:
----------------
Maximum memory for working arrays          ...    256 MB
Data storage in matrix containers          ... UNCOMPRESSED
Data type for integral storage             ... DOUBLE
In-Core Storage of quantities:
   Amplitudes+Sigma Vector      ... YES
   J+K operators                ... YES
   DIIS vectors                 ... YES
   3-external integrals         ... YES
   4-external integrals         ... YES


Initializing the integral package          ... done

--------------------------
CLOSED-SHELL FOCK OPERATOR
--------------------------

<ss|ss>:           55 b            0 skpd (  0.0%)    0.000 s ( 0.001 ms/b)
<ss|sp>:           40 b            0 skpd (  0.0%)    0.000 s ( 0.002 ms/b)
<ss|pp>:           10 b            0 skpd (  0.0%)    0.000 s ( 0.007 ms/b)
<sp|sp>:           10 b            0 skpd (  0.0%)    0.000 s ( 0.003 ms/b)
<sp|pp>:            4 b            0 skpd (  0.0%)    0.000 s ( 0.015 ms/b)
<pp|pp>:            1 b            0 skpd (  0.0%)    0.000 s ( 0.031 ms/b)
Recanonicalizing the internal orbitals
Time needed for Fock operator              ...            0.105 sec
Reference energy                           ...    -74.963574242
<ss|**>: <sp|**>: 
------------------------------
PARTIAL COULOMB TRANSFORMATION
------------------------------

Transformation type                        ... one-operator
Dimension of the basis                     ...    7
Number of internal MOs                     ...    6 (1-6)
Pair cutoff                                ... 0.000e+00 Eh
Number of AO pairs included in the trafo   ...   28
Total Number of distinct AO pairs          ...   28
Memory devoted for trafo                   ...  256.0 MB 
Max. Number of MO pairs treated together   ... 1198372      
Max. Number of MOs treated per batch       ... 171196      
Number Format for Storage                  ... Double (8 Byte)
AO-integral source                         ... DIRECT
Integral package used                      ... LIBINT

Starting integral evaluation:
         150 b        0 skpd     0.000 s (  0.002 ms/b)
          60 b        0 skpd     0.000 s (  0.003 ms/b)
          15 b        0 skpd     0.000 s (  0.017 ms/b)
Closing buffer AOJ ( 0.00 GB; CompressionRatio= 0.93)
Collecting buffer AOJ 
    ... done with AO integral generation
Number of MO pairs included in the trafo   ...   21
    ... Now sorting integrals
IBATCH = 1 of  1
Closing buffer JAO ( 0.00 GB; CompressionRatio= 0.95)
Collecting buffer JAO 
TOTAL TIME for half transformation         ...     0.001 sec
AO-integral generation                     ...     0.001 sec
Half transformation                        ...     0.000 sec
J-integral sorting                         ...     0.000 sec

-------------------------- SECOND HALF TRANSFORMATION -------------------------
Formation of (pq|rs)                       ... ok (     0.000 sec)
Integral sorting                           ... <pp|**>: ok (     0.013 sec)

----------------------
MOELLER-PLESSET THEORY
----------------------

Making MP2 energy and amplitudes       ...     0.000 sec
Number of amplitudes                   ... 40
Forming H*T(1)                         ...     0.037 sec
E(MP2)  =    -74.999374371   EC(MP2)=    -0.035800129
E(MP3)  =    -75.009120635   EC(MP3)=    -0.045546392  E3=    -0.009746263
------------------
LARGEST AMPLITUDES
------------------
   2->  6   2->  6       0.056463
   3->  5   3->  5       0.032998
   3->  5   2->  6       0.032905
   2->  5   2->  5       0.029259
   3->  6   3->  6       0.029020
   1->  5   1->  5       0.027235
   2->  6   1->  5       0.023787
   3->  5   1->  5       0.020917
   4->  5   4->  5       0.019394
   3->  6   2->  5       0.018627
   1->  6   1->  6       0.015510
   2->  5   1->  6       0.010933
   4->  6   4->  6       0.010815
   3->  6   1->  6       0.005239
   3->  5   2->  5       0.000005
   3->  6   2->  6       0.000004



------------------------------------------------------------------------------- 
                                     TIMINGS                                   
------------------------------------------------------------------------------- 


Total execution time                   ...        0.508 sec

Fock Matrix Formation                  ...        0.105 sec ( 20.6%)
Initial Guess                          ...        0.000 sec (  0.0%)
Sigma-vector construction              ...        0.037 sec (  7.2%)
  <D|H|D>(2-ext Fock)                  ...        0.025 sec ( 69.4% of sigma)
  Pair energies                        ...        0.011 sec ( 29.8% of sigma)


-------------------------   --------------------
FINAL SINGLE POINT ENERGY       -75.009120634600
-------------------------   --------------------


                            ***************************************
                            *     ORCA property calculations      *
                            ***************************************

                                    ---------------------
                                    Active property flags
                                    ---------------------
   (+) Dipole Moment


------------------------------------------------------------------------------
                       ORCA ELECTRIC PROPERTIES CALCULATION
------------------------------------------------------------------------------

Dipole Moment Calculation                       ... on
Quadrupole Moment Calculation                   ... off
Polarizability Calculation                      ... off
GBWName                                         ... water_mp3.gbw
Electron density file                           ... water_mp3.scfp.tmp
The origin for moment calculation is the CENTER OF MASS  = ( 3.400657,  2.365003  0.847905)

-------------
DIPOLE MOMENT
-------------
                                X             Y             Z
Electronic contribution:     -0.06749       0.05033       0.29178
Nuclear contribution   :      0.21773      -0.16239      -0.94154
                        -----------------------------------------
Total Dipole Moment    :      0.15024      -0.11207      -0.64976
                        -----------------------------------------
Magnitude (a.u.)       :      0.67625
Magnitude (Debye)      :      1.71890



--------------------
Rotational spectrum 
--------------------
 
Rotational constants in cm-1:    27.172637    14.432751     9.426085 
Rotational constants in MHz : 814615.168427 432682.991980 282586.906303 

 Dipole components along the rotational axes: 
x,y,z [a.u.] :     0.000020    -0.676253    -0.000000 
x,y,z [Debye]:     0.000051    -1.718900    -0.000001 

 

Timings for individual modules:

Sum of individual times         ...       24.093 sec (=   0.402 min)
GTO integral calculation        ...        3.044 sec (=   0.051 min)  12.6 %
SCF iterations                  ...        3.837 sec (=   0.064 min)  15.9 %
MDCI module                     ...       17.212 sec (=   0.287 min)  71.4 %
                             ****ORCA TERMINATED NORMALLY****
TOTAL RUN TIME: 0 days 0 hours 0 minutes 25 seconds 713 msec
