Jobname.Temp
SP        R                             STO-3G              
Number of atoms                            I               20
Charge                                     I                0
Multiplicity                               I                1
Number of electrons                        I               70
Number of alpha electrons                  I               35
Number of beta electrons                   I               35
Atomic numbers                             I   N=          20
           6           6           6           6           6           6
           1           1           1           1           6           6
           1           1           1           6           6           1
           1           1
Current cartesian coordinates              R   N=          60
  2.58290277E+00  5.26797819E-01 -7.59359635E-16  8.34595104E-01  2.50022004E+00
 -4.80205391E-15 -1.74784262E+00  1.97341116E+00 -4.04262387E-15 -2.58290277E+00
 -5.26797819E-01  7.59359635E-16 -8.34595104E-01 -2.50022004E+00  4.80205391E-15
  1.74784262E+00 -1.97341116E+00  4.04262387E-15  1.49330241E+00  4.47110415E+00
 -8.58735258E-15 -3.12599029E+00  3.52878408E+00 -7.22893583E-15 -1.49330241E+00
 -4.47110415E+00  8.58735258E-15  3.12599029E+00 -3.52878408E+00  7.22893583E-15
 -5.43458912E+00 -1.10885517E+00  1.59859989E-15 -7.18244858E+00  6.86446481E-01
 -2.09570409E-15 -5.90319098E+00 -3.13067751E+00  5.50345343E-15 -9.21608439E+00
  2.72072858E-01 -1.49860446E-15 -6.71384672E+00  2.70826884E+00 -6.00055767E-15
  5.43458912E+00  1.10885517E+00 -1.59859989E-15  7.18244858E+00 -6.86446481E-01
  2.09570409E-15  5.90319098E+00  3.13067751E+00 -5.50345343E-15  9.21608439E+00
 -2.72072858E-01  1.49860446E-15  6.71384672E+00 -2.70826884E+00  6.00055767E-15
Nuclear charges                            R   N=          20
  6.00000000E+00  6.00000000E+00  6.00000000E+00  6.00000000E+00  6.00000000E+00
  6.00000000E+00  1.00000000E+00  1.00000000E+00  1.00000000E+00  1.00000000E+00
  6.00000000E+00  6.00000000E+00  1.00000000E+00  1.00000000E+00  1.00000000E+00
  6.00000000E+00  6.00000000E+00  1.00000000E+00  1.00000000E+00  1.00000000E+00
Number of basis functions                  I               60
Number of contracted shells                I               30
Number of primitive shells                 I               90
Highest angular momentum                   I                1
Largest degree of contraction              I                3
Shell types                                I   N=          30
           0          -1           0          -1           0          -1
           0          -1           0          -1           0          -1
           0           0           0           0           0          -1
           0          -1           0           0           0           0
          -1           0          -1           0           0           0
Number of primitives per shell             I   N=          30
           3           3           3           3           3           3
           3           3           3           3           3           3
           3           3           3           3           3           3
           3           3           3           3           3           3
           3           3           3           3           3           3
Shell to atom map                          I   N=          30
           1           1           2           2           3           3
           4           4           5           5           6           6
           7           8           9          10          11          11
          12          12          13          14          15          16
          16          17          17          18          19          20
Primitive exponents                        R   N=          90
  7.16168370E+01  1.30450960E+01  3.53051220E+00  2.94124940E+00  6.83483100E-01
  2.22289900E-01  7.16168370E+01  1.30450960E+01  3.53051220E+00  2.94124940E+00
  6.83483100E-01  2.22289900E-01  7.16168370E+01  1.30450960E+01  3.53051220E+00
  2.94124940E+00  6.83483100E-01  2.22289900E-01  7.16168370E+01  1.30450960E+01
  3.53051220E+00  2.94124940E+00  6.83483100E-01  2.22289900E-01  7.16168370E+01
  1.30450960E+01  3.53051220E+00  2.94124940E+00  6.83483100E-01  2.22289900E-01
  7.16168370E+01  1.30450960E+01  3.53051220E+00  2.94124940E+00  6.83483100E-01
  2.22289900E-01  3.42525091E+00  6.23913730E-01  1.68855400E-01  3.42525091E+00
  6.23913730E-01  1.68855400E-01  3.42525091E+00  6.23913730E-01  1.68855400E-01
  3.42525091E+00  6.23913730E-01  1.68855400E-01  7.16168370E+01  1.30450960E+01
  3.53051220E+00  2.94124940E+00  6.83483100E-01  2.22289900E-01  7.16168370E+01
  1.30450960E+01  3.53051220E+00  2.94124940E+00  6.83483100E-01  2.22289900E-01
  3.42525091E+00  6.23913730E-01  1.68855400E-01  3.42525091E+00  6.23913730E-01
  1.68855400E-01  3.42525091E+00  6.23913730E-01  1.68855400E-01  7.16168370E+01
  1.30450960E+01  3.53051220E+00  2.94124940E+00  6.83483100E-01  2.22289900E-01
  7.16168370E+01  1.30450960E+01  3.53051220E+00  2.94124940E+00  6.83483100E-01
  2.22289900E-01  3.42525091E+00  6.23913730E-01  1.68855400E-01  3.42525091E+00
  6.23913730E-01  1.68855400E-01  3.42525091E+00  6.23913730E-01  1.68855400E-01
Contraction coefficients                   R   N=          90
  1.54328970E-01  5.35328140E-01  4.44634540E-01 -9.99672301E-02  3.99512830E-01
  7.00115471E-01  1.54328970E-01  5.35328140E-01  4.44634540E-01 -9.99672301E-02
  3.99512830E-01  7.00115471E-01  1.54328970E-01  5.35328140E-01  4.44634540E-01
 -9.99672301E-02  3.99512830E-01  7.00115471E-01  1.54328970E-01  5.35328140E-01
  4.44634540E-01 -9.99672301E-02  3.99512830E-01  7.00115471E-01  1.54328970E-01
  5.35328140E-01  4.44634540E-01 -9.99672301E-02  3.99512830E-01  7.00115471E-01
  1.54328970E-01  5.35328140E-01  4.44634540E-01 -9.99672301E-02  3.99512830E-01
  7.00115471E-01  1.54328971E-01  5.35328142E-01  4.44634542E-01  1.54328971E-01
  5.35328142E-01  4.44634542E-01  1.54328971E-01  5.35328142E-01  4.44634542E-01
  1.54328971E-01  5.35328142E-01  4.44634542E-01  1.54328970E-01  5.35328140E-01
  4.44634540E-01 -9.99672301E-02  3.99512830E-01  7.00115471E-01  1.54328970E-01
  5.35328140E-01  4.44634540E-01 -9.99672301E-02  3.99512830E-01  7.00115471E-01
  1.54328971E-01  5.35328142E-01  4.44634542E-01  1.54328971E-01  5.35328142E-01
  4.44634542E-01  1.54328971E-01  5.35328142E-01  4.44634542E-01  1.54328970E-01
  5.35328140E-01  4.44634540E-01 -9.99672301E-02  3.99512830E-01  7.00115471E-01
  1.54328970E-01  5.35328140E-01  4.44634540E-01 -9.99672301E-02  3.99512830E-01
  7.00115471E-01  1.54328971E-01  5.35328142E-01  4.44634542E-01  1.54328971E-01
  5.35328142E-01  4.44634542E-01  1.54328971E-01  5.35328142E-01  4.44634542E-01
P(S=P) Contraction coefficients            R   N=          90
  0.00000000E+00  0.00000000E+00  0.00000000E+00  1.55916272E-01  6.07683728E-01
  3.91957395E-01  0.00000000E+00  0.00000000E+00  0.00000000E+00  1.55916272E-01
  6.07683728E-01  3.91957395E-01  0.00000000E+00  0.00000000E+00  0.00000000E+00
  1.55916272E-01  6.07683728E-01  3.91957395E-01  0.00000000E+00  0.00000000E+00
  0.00000000E+00  1.55916272E-01  6.07683728E-01  3.91957395E-01  0.00000000E+00
  0.00000000E+00  0.00000000E+00  1.55916272E-01  6.07683728E-01  3.91957395E-01
  0.00000000E+00  0.00000000E+00  0.00000000E+00  1.55916272E-01  6.07683728E-01
  3.91957395E-01  0.00000000E+00  0.00000000E+00  0.00000000E+00  0.00000000E+00
  0.00000000E+00  0.00000000E+00  0.00000000E+00  0.00000000E+00  0.00000000E+00
  0.00000000E+00  0.00000000E+00  0.00000000E+00  0.00000000E+00  0.00000000E+00
  0.00000000E+00  1.55916272E-01  6.07683728E-01  3.91957395E-01  0.00000000E+00
  0.00000000E+00  0.00000000E+00  1.55916272E-01  6.07683728E-01  3.91957395E-01
  0.00000000E+00  0.00000000E+00  0.00000000E+00  0.00000000E+00  0.00000000E+00
  0.00000000E+00  0.00000000E+00  0.00000000E+00  0.00000000E+00  0.00000000E+00
  0.00000000E+00  0.00000000E+00  1.55916272E-01  6.07683728E-01  3.91957395E-01
  0.00000000E+00  0.00000000E+00  0.00000000E+00  1.55916272E-01  6.07683728E-01
  3.91957395E-01  0.00000000E+00  0.00000000E+00  0.00000000E+00  0.00000000E+00
  0.00000000E+00  0.00000000E+00  0.00000000E+00  0.00000000E+00  0.00000000E+00
Coordinates of each shell                  R   N=          90
  2.58290277E+00  5.26797819E-01 -7.59359635E-16  2.58290277E+00  5.26797819E-01
 -7.59359635E-16  8.34595104E-01  2.50022004E+00 -4.80205391E-15  8.34595104E-01
  2.50022004E+00 -4.80205391E-15 -1.74784262E+00  1.97341116E+00 -4.04262387E-15
 -1.74784262E+00  1.97341116E+00 -4.04262387E-15 -2.58290277E+00 -5.26797819E-01
  7.59359635E-16 -2.58290277E+00 -5.26797819E-01  7.59359635E-16 -8.34595104E-01
 -2.50022004E+00  4.80205391E-15 -8.34595104E-01 -2.50022004E+00  4.80205391E-15
  1.74784262E+00 -1.97341116E+00  4.04262387E-15  1.74784262E+00 -1.97341116E+00
  4.04262387E-15  1.49330241E+00  4.47110415E+00 -8.58735258E-15 -3.12599029E+00
  3.52878408E+00 -7.22893583E-15 -1.49330241E+00 -4.47110415E+00  8.58735258E-15
  3.12599029E+00 -3.52878408E+00  7.22893583E-15 -5.43458912E+00 -1.10885517E+00
  1.59859989E-15 -5.43458912E+00 -1.10885517E+00  1.59859989E-15 -7.18244858E+00
  6.86446481E-01 -2.09570409E-15 -7.18244858E+00  6.86446481E-01 -2.09570409E-15
 -5.90319098E+00 -3.13067751E+00  5.50345343E-15 -9.21608439E+00  2.72072858E-01
 -1.49860446E-15 -6.71384672E+00  2.70826884E+00 -6.00055767E-15  5.43458912E+00
  1.10885517E+00 -1.59859989E-15  5.43458912E+00  1.10885517E+00 -1.59859989E-15
  7.18244858E+00 -6.86446481E-01  2.09570409E-15  7.18244858E+00 -6.86446481E-01
  2.09570409E-15  5.90319098E+00  3.13067751E+00 -5.50345343E-15  9.21608439E+00
 -2.72072858E-01  1.49860446E-15  6.71384672E+00 -2.70826884E+00  6.00055767E-15
Overlap Matrix                             R   N=        1830
  1.00000000E+00  2.48362390E-01  1.00000000E+00  2.11390164E-16  1.99859001E-17
  1.00000000E+00 -2.50787826E-17  0.00000000E+00  0.00000000E+00  1.00000000E+00
 -1.02736326E-33 -2.43248570E-32 -1.26540800E-47  0.00000000E+00  1.00000000E+00
  9.28499134E-07  3.79483091E-02 -4.17199964E-02  4.70919219E-02 -9.64711154E-17
  1.00000000E+00  3.79483091E-02  3.67071367E-01 -2.58382267E-01  2.91651932E-01
 -5.97469503E-16  2.48362390E-01  1.00000000E+00  4.17199964E-02  2.58382267E-01
 -2.38697895E-02  2.69517708E-01 -5.52125989E-16  1.02589511E-17 -9.26285438E-17
  1.00000000E+00 -4.70919219E-02 -2.91651932E-01  2.69517708E-01 -8.93180125E-02
  6.23218509E-16  2.38507107E-16  0.00000000E+00  0.00000000E+00  1.00000000E+00
  9.64711154E-17  5.97469503E-16 -5.52125989E-16  6.23218509E-16  2.14903175E-01
 -1.01362800E-31 -9.72994279E-32 -2.53081600E-47  0.00000000E+00  1.00000000E+00
  2.05608024E-17  1.84257566E-03 -4.02361918E-03  1.34402295E-03 -3.05042291E-18
  9.35849267E-07  3.79890711E-02 -6.17105198E-02 -1.25887450E-02  1.81475131E-17
  1.00000000E+00  1.84257566E-03  6.12758480E-02 -8.54995255E-02  2.85596920E-02
 -6.48196810E-17  3.79890711E-02  3.67296441E-01 -3.81939539E-01 -7.79144214E-02
  1.12318820E-16  2.48362390E-01  1.00000000E+00  4.02361918E-03  8.54995255E-02
 -1.06061995E-01  4.40001101E-02 -9.98635806E-17  6.17105198E-02  3.81939539E-01
 -3.06403838E-01 -1.06380508E-01  1.53354578E-16  7.48505739E-17  1.23510636E-16
  1.00000000E+00 -1.34402295E-03 -2.85596920E-02  4.40001101E-02  1.09642096E-02
  3.33577652E-17  1.25887450E-02  7.79144214E-02 -1.06380508E-01  1.93376294E-01
  3.12838342E-17  1.37432450E-16 -2.45555256E-16 -2.92389811E-32  1.00000000E+00
  3.05042291E-18  6.48196810E-17 -9.98635806E-17  3.33577652E-17  2.56617133E-02
 -1.81475131E-17 -1.12318820E-16  1.53354578E-16  3.12838342E-17  2.15077571E-01
 -2.63490465E-31  5.36097354E-31  1.03877728E-46 -1.03877728E-46  1.00000000E+00
  9.69956201E-23  4.22422021E-04 -1.09814248E-03 -2.23972451E-04  3.22848031E-19
  2.07766842E-17  1.84489037E-03 -3.17913752E-03 -2.81589233E-03  5.17352142E-18
  9.32781797E-07  3.79720925E-02 -1.99432541E-02 -5.97110317E-02  1.14682969E-16
  1.00000000E+00  4.22422021E-04  2.63846608E-02 -4.15260030E-02 -8.46946624E-03
  1.22084233E-17  1.84489037E-03  6.13204774E-02 -6.75227107E-02 -5.98076309E-02
  1.09882063E-16  3.79720925E-02  3.67202707E-01 -1.23466549E-01 -3.69664598E-01
  7.09989972E-16  2.48362390E-01  1.00000000E+00  1.09814248E-03  4.15260030E-02
 -6.02962947E-02 -1.43755942E-02  2.07218891E-17  3.17913752E-03  6.75227107E-02
 -5.64152785E-02 -7.27173659E-02  1.33600581E-16  1.99432541E-02  1.23466549E-01
  1.60500016E-01 -1.63190270E-01  3.13428594E-16 -2.11390164E-16 -1.99859001E-17
  1.00000000E+00  2.23972451E-04  8.46946624E-03 -1.43755942E-02  7.25561533E-03
  4.22634801E-18  2.81589233E-03  5.98076309E-02 -7.27173659E-02 -3.87262493E-02
  1.18335507E-16  5.97110317E-02  3.69664598E-01 -1.63190270E-01 -2.73594333E-01
  9.38419809E-16  2.50787826E-17  0.00000000E+00  0.00000000E+00  1.00000000E+00
 -3.22848031E-19 -1.22084233E-17  2.07218891E-17  4.22634801E-18  1.01876001E-02
 -5.17352142E-18 -1.09882063E-16  1.33600581E-16  1.18335507E-16  2.56825005E-02
 -1.14682969E-16 -7.09989972E-16  3.13428594E-16  9.38419809E-16  2.15004936E-01
  1.02736326E-33  2.43248570E-32 -1.26540800E-47  0.00000000E+00  1.00000000E+00
  2.07766842E-17  1.84489037E-03 -3.17913752E-03 -2.81589233E-03  5.17352142E-18
  9.78578782E-23  4.22871018E-04 -3.55212406E-04 -1.06411980E-03  2.04380437E-18
  2.05843583E-17  1.84282927E-03  8.48599292E-04 -4.15694562E-03  8.21856853E-18
  9.28499134E-07  3.79483091E-02  4.17199964E-02 -4.70919219E-02  9.64711154E-17
  1.00000000E+00  1.84489037E-03  6.13204774E-02 -6.75227107E-02 -5.98076309E-02
  1.09882063E-16  4.22871018E-04  2.64005007E-02 -1.34265195E-02 -4.02222024E-02
  7.72528742E-17  1.84282927E-03  6.12807388E-02  1.80312936E-02 -8.83280341E-02
  1.74630622E-16  3.79483091E-02  3.67071367E-01  2.58382267E-01 -2.91651932E-01
  5.97469503E-16  2.48362390E-01  1.00000000E+00  3.17913752E-03  6.75227107E-02
 -5.64152785E-02 -7.27173659E-02  1.33600581E-16  3.55212406E-04  1.34265195E-02
  2.83008714E-03 -2.20609509E-02  4.23714208E-17 -8.48599292E-04 -1.80312936E-02
  1.98058897E-02  2.86964761E-02 -5.67349148E-17 -4.17199964E-02 -2.58382267E-01
 -2.38697895E-02  2.69517708E-01 -5.52125989E-16  3.31322478E-17  7.04525200E-17
  1.00000000E+00  2.81589233E-03  5.98076309E-02 -7.27173659E-02 -3.87262493E-02
  1.18335507E-16  1.06411980E-03  4.02222024E-02 -2.20609509E-02 -5.58943878E-02
  1.26933258E-16  4.15694562E-03  8.83280341E-02  2.86964761E-02 -1.14908470E-01
  2.77921462E-16  4.70919219E-02  2.91651932E-01  2.69517708E-01 -8.93180125E-02
  6.23218509E-16 -2.38507107E-16  0.00000000E+00  0.00000000E+00  1.00000000E+00
 -5.17352142E-18 -1.09882063E-16  1.33600581E-16  1.18335507E-16  2.56825005E-02
 -2.04380437E-18 -7.72528742E-17  4.23714208E-17  1.26933258E-16  1.01942236E-02
 -8.21856853E-18 -1.74630622E-16 -5.67349148E-17  2.77921462E-16  2.56639912E-02
 -9.64711154E-17 -5.97469503E-16 -5.52125989E-16  6.23218509E-16  2.14903175E-01
  1.01362800E-31  9.72994279E-32 -1.26540800E-47  0.00000000E+00  1.00000000E+00
  9.32781797E-07  3.79720925E-02 -1.99432541E-02 -5.97110317E-02  1.14682969E-16
  2.05843583E-17  1.84282927E-03  8.48599292E-04 -4.15694562E-03  8.21856853E-18
  9.67201526E-23  4.22277838E-04  7.42855952E-04 -8.38725528E-04  1.71816797E-18
  2.05608024E-17  1.84257566E-03  4.02361918E-03 -1.34402295E-03  3.05042291E-18
  9.35849267E-07  3.79890711E-02  6.17105198E-02  1.25887450E-02 -1.81475131E-17
  1.00000000E+00  3.79720925E-02  3.67202707E-01 -1.23466549E-01 -3.69664598E-01
  7.09989972E-16  1.84282927E-03  6.12807388E-02  1.80312936E-02 -8.83280341E-02
  1.74630622E-16  4.22277838E-04  2.63795728E-02  2.80947942E-02 -3.17205793E-02
  6.49810712E-17  1.84257566E-03  6.12758480E-02  8.54995255E-02 -2.85596920E-02
  6.48196810E-17  3.79890711E-02  3.67296441E-01  3.81939539E-01  7.79144214E-02
 -1.12318820E-16  2.48362390E-01  1.00000000E+00  1.99432541E-02  1.23466549E-01
  1.60500016E-01 -1.63190270E-01  3.13428594E-16 -8.48599292E-04 -1.80312936E-02
  1.98058897E-02  2.86964761E-02 -5.67349148E-17 -7.42855952E-04 -2.80947942E-02
 -2.20833552E-02  3.64332946E-02 -7.46352861E-17 -4.02361918E-03 -8.54995255E-02
 -1.06061995E-01  4.40001101E-02 -9.98635806E-17 -6.17105198E-02 -3.81939539E-01
 -3.06403838E-01 -1.06380508E-01  1.53354578E-16 -7.48505739E-17 -1.23510636E-16
  1.00000000E+00  5.97110317E-02  3.69664598E-01 -1.63190270E-01 -2.73594333E-01
  9.38419809E-16  4.15694562E-03  8.83280341E-02  2.86964761E-02 -1.14908470E-01
  2.77921462E-16  8.38725528E-04  3.17205793E-02  3.64332946E-02 -3.09497355E-02
  8.42673732E-17  1.34402295E-03  2.85596920E-02  4.40001101E-02  1.09642096E-02
  3.33577652E-17 -1.25887450E-02 -7.79144214E-02 -1.06380508E-01  1.93376294E-01
  3.12838342E-17 -1.37432450E-16  2.45555256E-16 -2.92389811E-32  1.00000000E+00
 -1.14682969E-16 -7.09989972E-16  3.13428594E-16  9.38419809E-16  2.15004936E-01
 -8.21856853E-18 -1.74630622E-16 -5.67349148E-17  2.77921462E-16  2.56639912E-02
 -1.71816797E-18 -6.49810712E-17 -7.46352861E-17  8.42673732E-17  1.01854727E-02
 -3.05042291E-18 -6.48196810E-17 -9.98635806E-17  3.33577652E-17  2.56617133E-02
  1.81475131E-17  1.12318820E-16  1.53354578E-16  3.12838342E-17  2.15077571E-01
  2.63490465E-31 -5.36097354E-31  1.03877728E-46 -1.03877728E-46  1.00000000E+00
  5.29064196E-03  9.55903186E-02 -3.29116238E-02  1.19138660E-01 -2.36446288E-16
  6.08874056E-02  4.85212737E-01  1.47061368E-01  4.40014721E-01 -8.45096437E-16
  5.29176583E-03  9.56049108E-02  9.79163064E-02  7.54563184E-02 -1.37298098E-16
  9.20087288E-05  6.45003130E-03  6.75860782E-03  8.28683979E-03 -1.54974442E-17
  1.21817086E-05  1.84747902E-03  1.05294511E-03  3.15324093E-03 -6.05624174E-18
  9.19773482E-05  6.44864958E-03 -4.21949098E-04  1.06830172E-02 -2.09366026E-17
  1.00000000E+00  9.18753929E-05  6.44415921E-03 -9.45667470E-03  4.97273416E-03
 -1.07167321E-17  5.29116529E-03  9.55971136E-02 -1.19639927E-01  3.10704895E-02
 -7.33103689E-17  6.08838508E-02  4.85198418E-01 -3.07669085E-01  3.47234316E-01
 -7.11338637E-16  5.29246541E-03  9.56139936E-02 -1.64086457E-02  1.22533853E-01
 -2.41355407E-16  9.19352199E-05  6.44679435E-03 -3.79728042E-03  9.99121383E-03
 -1.99376528E-17  1.21620392E-05  1.84565734E-03 -2.20227215E-03  2.48620164E-03
 -5.09312537E-18  5.00066312E-02  1.00000000E+00  9.20087288E-05  6.45003130E-03
 -6.75860782E-03 -8.28683979E-03  1.54974442E-17  1.21817086E-05  1.84747902E-03
 -1.05294511E-03 -3.15324093E-03  6.05624174E-18  9.19773482E-05  6.44864958E-03
  4.21949098E-04 -1.06830172E-02  2.09366026E-17  5.29064196E-03  9.55903186E-02
  3.29116238E-02 -1.19138660E-01  2.36446288E-16  6.08874056E-02  4.85212737E-01
 -1.47061368E-01 -4.40014721E-01  8.45096437E-16  5.29176583E-03  9.56049108E-02
 -9.79163064E-02 -7.54563184E-02  1.37298098E-16  1.11528442E-04  7.61637367E-04
  1.00000000E+00  5.29246541E-03  9.56139936E-02  1.64086457E-02 -1.22533853E-01
  2.41355407E-16  9.19352199E-05  6.44679435E-03  3.79728042E-03 -9.99121383E-03
  1.99376528E-17  1.21620392E-05  1.84565734E-03  2.20227215E-03 -2.48620164E-03
  5.09312537E-18  9.18753929E-05  6.44415921E-03  9.45667470E-03 -4.97273416E-03
  1.07167321E-17  5.29116529E-03  9.55971136E-02  1.19639927E-01 -3.10704895E-02
  7.33103689E-17  6.08838508E-02  4.85198418E-01  3.07669085E-01 -3.47234316E-01
  7.11338637E-16  7.61637367E-04  1.11398406E-04  5.00066312E-02  1.00000000E+00
  9.22885273E-53  1.06745412E-07 -4.29246196E-07 -8.75707560E-08  1.26242118E-22
  1.51058218E-41  2.34817294E-06 -7.39185634E-06 -4.25538070E-06  7.54686921E-21
  3.91179352E-19  1.14467049E-03 -2.12573745E-03 -1.77720084E-03  3.25266753E-18
  6.33881337E-08  2.65883849E-02 -4.36861748E-02 -8.91677984E-03  1.28566721E-17
  3.88855300E-19  1.14385145E-03 -2.65040525E-03  8.01670771E-04 -1.84575270E-18
  1.49285301E-41  2.34485481E-06 -8.45667492E-06  1.01793782E-06 -2.87762099E-21
  2.05131400E-07  1.01737670E-03  1.01718898E-03  2.04866535E-07  1.00000000E+00
  1.06745412E-07  2.93227592E-04 -6.32203682E-04 -1.28976226E-04  1.85932298E-19
  2.34817294E-06  1.52827564E-03 -2.63558425E-03 -1.51726628E-03  2.69085447E-18
  1.14467049E-03  4.65534821E-02 -5.41969969E-02 -4.53108395E-02  8.29287793E-17
  2.65883849E-02  2.98493812E-01 -3.29566904E-01 -6.72678609E-02  9.69902640E-17
  1.14385145E-03  4.65343397E-02 -6.75924489E-02  2.04447567E-02 -4.70716488E-17
  2.34485481E-06  1.52711465E-03 -3.01717787E-03  3.63180505E-04 -1.02667945E-18
  1.58079960E-04  3.04893694E-02  3.04856017E-02  1.57958181E-04  2.48362390E-01
  1.00000000E+00  4.29246196E-07  6.32203682E-04 -1.28669149E-03 -2.81762969E-04
  4.06189870E-19  7.39185634E-06  2.63558425E-03 -4.16355690E-03 -2.68973754E-03
  4.77021889E-18  2.12573745E-03  5.41969969E-02 -5.01125604E-02 -5.77259801E-02
  1.05651211E-16  4.36861748E-02  3.29566904E-01 -2.94979322E-01 -9.37446014E-02
  1.35165791E-16  2.65040525E-03  6.75924489E-02 -8.85136172E-02  3.24973117E-02
 -7.48212396E-17  8.45667492E-06  3.01717787E-03 -5.61944052E-03  7.37599922E-04
 -2.08513032E-18  2.55811835E-04  1.99234119E-02  3.40091238E-02  3.15852574E-04
  3.82611707E-16  1.02970480E-15  1.00000000E+00  8.75707560E-08  1.28976226E-04
 -2.81762969E-04  3.69454330E-05  8.28670219E-20  4.25538070E-06  1.51726628E-03
 -2.68973754E-03 -1.03975992E-03  2.74614338E-18  1.77720084E-03  4.53108395E-02
 -5.77259801E-02 -2.93268311E-02  8.83286038E-17  8.91677984E-03  6.72678609E-02
 -9.37446014E-02  1.45171458E-01  2.75886732E-17 -8.01670771E-04 -2.04447567E-02
  3.24973117E-02  9.09631157E-03  2.26312564E-17 -1.01793782E-06 -3.63180505E-04
  7.37599922E-04  4.19498623E-04  2.50989076E-19  2.06039547E-04  4.00232366E-02
 -2.90126423E-02 -8.92861029E-05  4.92071571E-18  0.00000000E+00  0.00000000E+00
  1.00000000E+00 -1.26242118E-22 -1.85932298E-19  4.06189870E-19  8.28670219E-20
  9.44280535E-05 -7.54686921E-21 -2.69085447E-18  4.77021889E-18  2.74614338E-18
  5.08681584E-04 -3.25266753E-18 -8.29287793E-17  1.05651211E-16  8.83286038E-17
  1.89343784E-02 -1.28566721E-17 -9.69902640E-17  1.35165791E-16  2.75886732E-17
  1.64305657E-01  1.84575270E-18  4.70716488E-17 -7.48212396E-17  2.26312564E-17
  1.89258065E-02  2.87762099E-21  1.02667945E-18 -2.08513032E-18  2.50989076E-19
  5.08284212E-04 -3.76115471E-19 -7.61824134E-17  6.03055228E-17  2.07737820E-19
 -6.80180532E-32 -8.53746245E-32 -1.03877728E-46  0.00000000E+00  1.00000000E+00
  1.47225269E-74  2.64963544E-10 -1.29521864E-09  2.11748574E-11 -1.77244850E-25
  3.15953083E-53  9.38978527E-08 -3.77545205E-07 -8.54157140E-08  1.27449648E-22
  2.41845950E-25  2.05744450E-04 -5.62474883E-04 -1.33199226E-04  2.01503750E-19
  8.88424003E-19  1.26320676E-03 -2.92715019E-03  7.72108472E-04 -1.81696208E-18
  4.15816653E-40  3.49292957E-06 -1.11351303E-05  5.58991272E-06 -1.20997490E-20
  5.40065264E-68  1.61150041E-09 -7.20785174E-09  2.14683476E-09 -4.95439140E-24
  3.74728460E-08  1.48084008E-03  5.44616203E-06  1.39591864E-10  3.04987037E-06
  4.47243006E-02 -5.17653303E-02  5.31703981E-02 -1.09412038E-16  1.00000000E+00
  2.64963544E-10  1.22404592E-05 -3.16710807E-05  5.17774066E-07 -4.33404508E-21
  9.38978527E-08  2.73906285E-04 -5.90151021E-04 -1.33515590E-04  1.99219959E-19
  2.05744450E-04  1.76113287E-02 -2.85372124E-02 -6.75787438E-03  1.02233104E-17
  1.26320676E-03  4.92679014E-02 -7.18434952E-02  1.89505040E-02 -4.45952199E-17
  3.49292957E-06  1.89227713E-03 -3.31868299E-03  1.66600190E-03 -3.60617526E-18
  1.61150041E-09  3.17846219E-05 -7.53841743E-05  2.24529265E-05 -5.18160914E-20
  5.74574688E-05  3.92739296E-02  1.13225153E-03  2.08624941E-06  4.47243006E-02
  4.02773183E-01 -2.88955938E-01  2.96799077E-01 -6.10741936E-16  2.48362390E-01
  1.00000000E+00  1.29521864E-09  3.16710807E-05 -7.83167078E-05  1.34342676E-06
 -1.12451985E-20  3.77545205E-07  5.90151021E-04 -1.19972541E-03 -2.91363378E-04
  4.34746235E-19  5.62474883E-04  2.85372124E-02 -4.28466297E-02 -1.17070996E-02
  1.77104968E-17  2.92715019E-03  7.18434952E-02 -9.46869800E-02  3.02923286E-02
 -7.12853366E-17  1.11351303E-05  3.31868299E-03 -5.36450787E-03  3.01121358E-03
 -6.51797808E-18  7.20785174E-09  7.53841743E-05 -1.69541690E-04  5.34912346E-05
 -1.23445231E-19  1.15420705E-04  4.60238929E-02  1.55580818E-03  4.91997827E-06
  5.17653303E-02  2.88955938E-01 -3.45116017E-02  2.85322875E-01 -5.87126641E-16
  2.02771592E-16  6.03591961E-16  1.00000000E+00 -2.11748574E-11 -5.17774066E-07
  1.34342676E-06  3.83573698E-06  1.83841915E-22  8.54157140E-08  1.33515590E-04
 -2.91363378E-04  2.22091917E-05  9.83568579E-20  1.33199226E-04  6.75787438E-03
 -1.17070996E-02  3.81786616E-03  4.19400854E-18 -7.72108472E-04 -1.89505040E-02
  3.02923286E-02  1.21642968E-02  1.88032758E-17 -5.58991272E-06 -1.66600190E-03
  3.01121358E-03 -8.77807549E-04  3.27207025E-18 -2.14683476E-09 -2.24529265E-05
  5.34912346E-05 -5.88069318E-06  3.67677530E-20  5.03504373E-05  3.22486839E-02
 -1.41043300E-03 -2.01183157E-06 -5.31703981E-02 -2.96799077E-01  2.85322875E-01
 -4.97960003E-02  6.03063036E-16  1.03394005E-17 -7.54489951E-17 -5.84779622E-32
  1.00000000E+00  1.77244850E-25  4.33404508E-21 -1.12451985E-20  1.83841915E-22
  3.85769997E-06 -1.27449648E-22 -1.99219959E-19  4.34746235E-19  9.83568579E-20
  8.81271550E-05 -2.01503750E-19 -1.02233104E-17  1.77104968E-17  4.19400854E-18
  6.59021501E-03  1.81696208E-18  4.45952199E-17 -7.12853366E-17  1.88032758E-17
  2.01546499E-02  1.20997490E-20  3.60617526E-18 -6.51797808E-18  3.27207025E-18
  6.33842575E-04  4.95439140E-24  5.18160914E-20 -1.23445231E-19  3.67677530E-20
  1.00514938E-05 -8.63637795E-20 -5.82407832E-17  2.92149059E-18  4.45043390E-21
  1.09412038E-16  6.10741936E-16 -5.87126641E-16  6.03063036E-16  2.43271401E-01
 -1.59708288E-31  2.19398963E-31  2.07755456E-46 -2.59694320E-47  1.00000000E+00
  7.41680357E-08  8.62330310E-05 -1.69957607E-04 -7.32511062E-05  1.25430234E-19
  2.85181281E-07  1.92426967E-04 -3.03518210E-04 -2.53656011E-04  4.64233964E-19
  6.94927241E-05  5.41006774E-03 -5.73149529E-03 -7.04009813E-03  1.31669580E-17
  4.44493833E-03  8.43832650E-02 -8.72231160E-02 -6.84032489E-02  1.24626122E-16
  1.14946288E-03  3.30926735E-02 -4.77834330E-02 -5.94354395E-03  6.61233955E-18
  4.69613640E-06  1.03505424E-03 -1.90849174E-03 -2.88671229E-04  3.64392746E-19
  1.49461234E-05  2.79609579E-03  5.54692997E-02  2.06833016E-04  6.10855877E-02
  4.86010000E-01 -1.04860636E-01 -4.52430081E-01  8.73802396E-16  5.78115105E-03
  1.01890938E-01  4.15192821E-02 -1.23887673E-01  2.46636459E-16  1.00000000E+00
  1.17574262E-11  4.82167354E-07 -1.29920889E-06 -2.80482494E-08 -8.13996521E-23
  2.61557139E-09  1.18376124E-05 -2.73329061E-05 -6.05946471E-06  8.98375812E-21
  5.71623741E-06  1.16596450E-03 -2.10470388E-03 -4.79472068E-04  7.16956908E-19
  5.60690729E-05  4.73213079E-03 -7.95518536E-03  9.58086884E-04 -2.70797996E-18
  2.49178438E-07  1.77533320E-04 -3.48016437E-04  1.15111225E-04 -2.61616117E-19
  1.14557940E-10  1.85585226E-06 -4.65407220E-06  9.53184451E-07 -2.35219340E-21
  2.78911359E-06  4.16626666E-03  1.98901712E-04  1.51794016E-07  5.78140572E-03
  1.01894175E-01 -1.22735715E-01  4.48206799E-02 -1.00525735E-16  6.10850997E-02
  4.86008040E-01 -4.55071040E-01 -9.27252732E-02  1.33614262E-16  4.83128210E-02
  1.00000000E+00  2.89127762E-08  4.92515140E-05 -1.05909652E-04  2.48515717E-05
 -5.97083378E-20  7.47252899E-06  1.37187357E-03 -2.51368674E-03  6.92817823E-05
 -3.99110581E-19  1.32819924E-03  3.64817255E-02 -5.20184037E-02  7.69756179E-03
 -2.05091636E-17  9.08755527E-04  2.82732793E-02 -3.28687590E-02  2.57405154E-02
 -5.37867605E-17  3.49483382E-06  8.65694393E-04 -1.22148399E-03  1.08212511E-03
 -2.24437020E-18  1.98010905E-08  3.93342513E-05 -7.68802782E-05  4.25362887E-05
 -9.12492245E-20  5.46289495E-04  1.29837666E-01  2.65253357E-04  2.09214797E-06
  5.78115091E-03  1.01890936E-01 -4.15192813E-02  1.23887672E-01 -2.46636455E-16
  6.10855863E-02  4.86009995E-01  1.04860634E-01  4.52430078E-01 -8.73802391E-16
  1.41444010E-02  1.52206713E-01  1.00000000E+00  6.33881337E-08  2.65883849E-02
  4.36861748E-02  8.91677984E-03 -1.28566721E-17  3.88855300E-19  1.14385145E-03
  2.65040525E-03 -8.01670771E-04  1.84575270E-18  1.49285301E-41  2.34485481E-06
  8.45667492E-06 -1.01793782E-06  2.87762099E-21  9.22885273E-53  1.06745412E-07
  4.29246196E-07  8.75707560E-08 -1.26242118E-22  1.51058218E-41  2.34817294E-06
  7.39185634E-06  4.25538070E-06 -7.54686921E-21  3.91179352E-19  1.14467049E-03
  2.12573745E-03  1.77720084E-03 -3.25266753E-18  1.01718898E-03  2.04866535E-07
  2.05131400E-07  1.01737670E-03  9.02103110E-96  7.80481249E-13  4.23971127E-12
  8.65056342E-13 -1.24712316E-27  0.00000000E+00  3.77253242E-16  2.37488317E-15
  7.95092571E-17  9.35690631E-32  3.63456933E-12  5.21668328E-17  2.01943026E-12
  1.00000000E+00  2.65883849E-02  2.98493812E-01  3.29566904E-01  6.72678609E-02
 -9.69902640E-17  1.14385145E-03  4.65343397E-02  6.75924489E-02 -2.04447567E-02
  4.70716488E-17  2.34485481E-06  1.52711465E-03  3.01717787E-03 -3.63180505E-04
  1.02667945E-18  1.06745412E-07  2.93227592E-04  6.32203682E-04  1.28976226E-04
 -1.85932298E-19  2.34817294E-06  1.52827564E-03  2.63558425E-03  1.51726628E-03
 -2.69085447E-18  1.14467049E-03  4.65534821E-02  5.41969969E-02  4.53108395E-02
 -8.29287793E-17  3.04856017E-02  1.57958181E-04  1.58079960E-04  3.04893694E-02
  7.80481249E-13  5.63355791E-07  1.61753599E-06  3.30036570E-07 -4.75802824E-22