Jobname.Temp
SP        R                             non-standard        
Number of atoms                            I                6
Charge                                     I               -2
Multiplicity                               I                1
Number of electrons                        I               52
Number of alpha electrons                  I               26
Number of beta electrons                   I               26
Atomic numbers                             I   N=           6
          42           8          17          17          17          17
Current cartesian coordinates              R   N=          18
 -1.07200562E-05  5.58764520E-01 -2.88689457E-15 -2.57584442E-06  3.75182343E+00
 -6.93816713E-16 -4.57356150E+00 -7.86514277E-01 -1.23164507E-09 -8.44120956E-06
 -7.86510728E-01 -4.57358243E+00  4.57360608E+00 -7.86505283E-01  1.23165708E-09
 -8.44367286E-06 -7.86510728E-01  4.57358243E+00
Nuclear charges                            R   N=           6
  4.20000000E+01  8.00000000E+00  1.70000000E+01  1.70000000E+01  1.70000000E+01
  1.70000000E+01
Number of basis functions                  I               68
Number of contracted shells                I               28
Number of primitive shells                 I               53
Highest angular momentum                   I                2
Largest degree of contraction              I                6
Shell types                                I   N=          28
           0           0           0           1           1           1
          -2          -2           0          -1          -1          -2
           0           0           1           1           0           0
           1           1           0           0           1           1
           0           0           1           1
Number of primitives per shell             I   N=          28
           3           4           1           3           2           1
           3           1           6           3           1           1
           2           1           2           1           2           1
           2           1           2           1           2           1
           2           1           2           1
Shell to atom map                          I   N=          28
           1           1           1           1           1           1
           1           1           2           2           2           2
           3           3           3           3           4           4
           4           4           5           5           5           5
           6           6           6           6
Primitive exponents                        R   N=          53
  2.36100000E+00  1.30900000E+00  4.50000000E-01  2.36100000E+00  1.30900000E+00
  4.50000000E-01  1.68100000E-01  4.23000000E-02  4.89500000E+00  1.04400000E+00
  3.87700000E-01  4.99500000E-01  7.80000000E-02  2.47000000E-02  2.99300000E+00
  1.06300000E+00  3.72100000E-01  1.17800000E-01  5.48467170E+03  8.25234950E+02
  1.88046960E+02  5.29645000E+01  1.68975700E+01  5.79963530E+00  1.55396160E+01
  3.59993360E+00  1.01376180E+00  2.70005800E-01  8.00000000E-01  2.23100000E+00
  4.72000000E-01  1.63100000E-01  6.29600000E+00  6.33300000E-01  1.81900000E-01
  2.23100000E+00  4.72000000E-01  1.63100000E-01  6.29600000E+00  6.33300000E-01
  1.81900000E-01  2.23100000E+00  4.72000000E-01  1.63100000E-01  6.29600000E+00
  6.33300000E-01  1.81900000E-01  2.23100000E+00  4.72000000E-01  1.63100000E-01
  6.29600000E+00  6.33300000E-01  1.81900000E-01
Contraction coefficients                   R   N=          53
 -9.12175979E-01  1.14774527E+00  6.09710886E-01  8.13925842E-01 -1.13600832E+00
 -1.16115912E+00  1.00647853E+00  1.00000000E+00 -9.08257996E-02  7.04289897E-01
  3.97317898E-01 -1.08194499E-01  1.03680929E+00  1.00000000E+00  5.27063001E-02
  5.00390701E-01  5.79402401E-01  1.00000000E+00  1.83109981E-03  1.39500985E-02
  6.84450927E-02  2.32714275E-01  4.70192950E-01  3.58520862E-01 -1.10777504E-01
 -1.48026305E-01  1.13076704E+00  1.00000000E+00  1.00000000E+00 -4.90058909E-01
  1.25426842E+00  1.00000000E+00 -6.35640979E-02  1.01413547E+00  1.00000000E+00
 -4.90058909E-01  1.25426842E+00  1.00000000E+00 -6.35640979E-02  1.01413547E+00
  1.00000000E+00 -4.90058909E-01  1.25426842E+00  1.00000000E+00 -6.35640979E-02
  1.01413547E+00  1.00000000E+00 -4.90058909E-01  1.25426842E+00  1.00000000E+00
 -6.35640979E-02  1.01413547E+00  1.00000000E+00
P(S=P) Contraction coefficients            R   N=          53
  0.00000000E+00  0.00000000E+00  0.00000000E+00  0.00000000E+00  0.00000000E+00
  0.00000000E+00  0.00000000E+00  0.00000000E+00  0.00000000E+00  0.00000000E+00
  0.00000000E+00  0.00000000E+00  0.00000000E+00  0.00000000E+00  0.00000000E+00
  0.00000000E+00  0.00000000E+00  0.00000000E+00  0.00000000E+00  0.00000000E+00
  0.00000000E+00  0.00000000E+00  0.00000000E+00  0.00000000E+00  7.08742995E-02
  3.39752798E-01  7.27158595E-01  1.00000000E+00  0.00000000E+00  0.00000000E+00
  0.00000000E+00  0.00000000E+00  0.00000000E+00  0.00000000E+00  0.00000000E+00
  0.00000000E+00  0.00000000E+00  0.00000000E+00  0.00000000E+00  0.00000000E+00
  0.00000000E+00  0.00000000E+00  0.00000000E+00  0.00000000E+00  0.00000000E+00
  0.00000000E+00  0.00000000E+00  0.00000000E+00  0.00000000E+00  0.00000000E+00
  0.00000000E+00  0.00000000E+00  0.00000000E+00
Coordinates of each shell                  R   N=          84
 -1.07200562E-05  5.58764520E-01 -2.88689457E-15 -1.07200562E-05  5.58764520E-01
 -2.88689457E-15 -1.07200562E-05  5.58764520E-01 -2.88689457E-15 -1.07200562E-05
  5.58764520E-01 -2.88689457E-15 -1.07200562E-05  5.58764520E-01 -2.88689457E-15
 -1.07200562E-05  5.58764520E-01 -2.88689457E-15 -1.07200562E-05  5.58764520E-01
 -2.88689457E-15 -1.07200562E-05  5.58764520E-01 -2.88689457E-15 -2.57584442E-06
  3.75182343E+00 -6.93816713E-16 -2.57584442E-06  3.75182343E+00 -6.93816713E-16
 -2.57584442E-06  3.75182343E+00 -6.93816713E-16 -2.57584442E-06  3.75182343E+00
 -6.93816713E-16 -4.57356150E+00 -7.86514277E-01 -1.23164507E-09 -4.57356150E+00
 -7.86514277E-01 -1.23164507E-09 -4.57356150E+00 -7.86514277E-01 -1.23164507E-09
 -4.57356150E+00 -7.86514277E-01 -1.23164507E-09 -8.44120956E-06 -7.86510728E-01
 -4.57358243E+00 -8.44120956E-06 -7.86510728E-01 -4.57358243E+00 -8.44120956E-06
 -7.86510728E-01 -4.57358243E+00 -8.44120956E-06 -7.86510728E-01 -4.57358243E+00
  4.57360608E+00 -7.86505283E-01  1.23165708E-09  4.57360608E+00 -7.86505283E-01
  1.23165708E-09  4.57360608E+00 -7.86505283E-01  1.23165708E-09  4.57360608E+00
 -7.86505283E-01  1.23165708E-09 -8.44367286E-06 -7.86510728E-01  4.57358243E+00
 -8.44367286E-06 -7.86510728E-01  4.57358243E+00 -8.44367286E-06 -7.86510728E-01
  4.57358243E+00 -8.44367286E-06 -7.86510728E-01  4.57358243E+00
Overlap Matrix                             R   N=        2346
  1.00000000E+00 -8.03643499E-01  1.00000000E+00  3.68725520E-01  1.11323197E-01
  1.00000000E+00 -2.60289307E-21  3.00166103E-21  5.38798514E-23  1.00000000E+00
  1.82480389E-16 -8.21566635E-17  0.00000000E+00 -2.24430788E-37  1.00000000E+00
 -7.31927524E-31  3.67604992E-31  1.49161368E-31 -1.00094399E-52 -7.07313284E-48
  1.00000000E+00 -4.07807462E-22  3.88394943E-22  0.00000000E+00  2.26251625E-01
  0.00000000E+00 -1.33121254E-52  1.00000000E+00 -2.34360709E-17 -1.34592117E-17
  0.00000000E+00  0.00000000E+00  2.26251625E-01  0.00000000E+00  0.00000000E+00
  1.00000000E+00  4.52932439E-32 -1.12582836E-32  2.37091917E-32 -1.33121254E-52
  0.00000000E+00  2.26251625E-01  0.00000000E+00  0.00000000E+00  1.00000000E+00
 -9.61127418E-23  1.83041158E-22  0.00000000E+00  9.58325572E-02 -1.40171614E-38
  0.00000000E+00  6.87735956E-01  0.00000000E+00  0.00000000E+00  1.00000000E+00
  0.00000000E+00  0.00000000E+00 -3.30749718E-17 -1.40171614E-38  9.58325572E-02
  2.94001139E-49  0.00000000E+00  6.87735956E-01  0.00000000E+00  0.00000000E+00
  1.00000000E+00 -3.26793262E-32 -1.63830902E-32  1.17505905E-31  0.00000000E+00
  2.94001139E-49  9.58325572E-02  0.00000000E+00  0.00000000E+00  6.87735956E-01
  0.00000000E+00  0.00000000E+00  1.00000000E+00  0.00000000E+00  0.00000000E+00
  0.00000000E+00 -6.57359288E-22  1.50572329E-18  4.53803233E-31 -2.75934831E-22
  1.74105001E-17  2.92202616E-31 -6.33143819E-23  7.35413052E-18  5.22542402E-32
  1.00000000E+00  3.36793824E-51 -4.47592422E-51  2.71497660E-52  3.93005128E-31
  0.00000000E+00  1.13857969E-21  2.53054888E-31 -2.44024974E-68  4.77933146E-22
  4.52534994E-32 -6.75451790E-69  1.09663726E-22  4.35728699E-52  1.00000000E+00
 -1.09279936E-46  1.28094880E-46 -2.09296775E-47  0.00000000E+00  3.93005128E-31
 -2.60798924E-18 -2.44024974E-68  2.53054888E-31 -3.01558708E-17 -6.75451790E-69
  4.52534994E-32 -1.27377277E-17  0.00000000E+00  0.00000000E+00  1.00000000E+00
  0.00000000E+00  0.00000000E+00  0.00000000E+00  1.13857969E-21  2.60798924E-18
  0.00000000E+00  4.77933146E-22  3.01558708E-17  0.00000000E+00  1.09663726E-22
  1.27377277E-17  0.00000000E+00  0.00000000E+00  7.54704244E-52  0.00000000E+00
  1.00000000E+00 -5.53807632E-37  4.08781370E-37 -7.64197975E-38 -2.60798924E-18
  1.13857969E-21  0.00000000E+00 -3.01558708E-17  4.77933146E-22 -2.44024974E-68
 -1.27377277E-17  1.09663726E-22 -6.75451790E-69  0.00000000E+00  0.00000000E+00
  7.54704244E-52  0.00000000E+00  1.00000000E+00  0.00000000E+00  0.00000000E+00
  0.00000000E+00  1.75361356E-22 -1.16943919E-17  0.00000000E+00  0.00000000E+00
  0.00000000E+00  3.26014244E-31  0.00000000E+00  0.00000000E+00  0.00000000E+00
  4.19703203E-01  1.26428639E-52 -8.28562729E-48  1.38777878E-17  1.13953975E-37
  1.00000000E+00  4.35352609E-52 -2.49631814E-52 -2.60722348E-52  0.00000000E+00
  0.00000000E+00 -3.03734779E-22  2.82336617E-31  0.00000000E+00  0.00000000E+00
  0.00000000E+00  0.00000000E+00  0.00000000E+00  1.26428639E-52  4.19703203E-01
 -9.86870376E-38  2.18980826E-52 -1.43511274E-47  0.00000000E+00  1.00000000E+00
  0.00000000E+00 -2.02837840E-47  1.70866998E-47  0.00000000E+00  0.00000000E+00
  2.02552810E-17  0.00000000E+00  2.82336617E-31  0.00000000E+00  0.00000000E+00
  0.00000000E+00  0.00000000E+00 -8.28562729E-48 -9.86870376E-38  4.19703203E-01
  1.43511274E-47  2.18980826E-52  0.00000000E+00  0.00000000E+00  1.00000000E+00
  0.00000000E+00  0.00000000E+00  0.00000000E+00 -3.03734779E-22 -2.02552810E-17
  0.00000000E+00  0.00000000E+00  0.00000000E+00  0.00000000E+00  0.00000000E+00
  0.00000000E+00  0.00000000E+00  0.00000000E+00  2.18980826E-52  1.43511274E-47
  4.19703203E-01  0.00000000E+00  0.00000000E+00  0.00000000E+00  0.00000000E+00
  1.00000000E+00  2.24382076E-38 -1.07139585E-37 -7.33868167E-38  2.02552810E-17
 -3.03734779E-22  0.00000000E+00  0.00000000E+00  0.00000000E+00  0.00000000E+00
  0.00000000E+00  0.00000000E+00  0.00000000E+00  1.13953975E-37 -1.43511274E-47
  2.18980826E-52 -3.00622741E-54  4.19703203E-01  0.00000000E+00  0.00000000E+00
  0.00000000E+00  0.00000000E+00  1.00000000E+00  1.87647218E-03  1.88220350E-02
  2.82355582E-02  1.92946375E-08  7.56474859E-03  5.19567070E-18  1.42441089E-07
  5.58461400E-02  3.83566156E-17  5.77004627E-08  2.26223215E-02  1.55376126E-17
 -1.30021290E-02  7.89031493E-23  3.09351490E-17 -2.25203480E-02  1.14880738E-07
 -3.80486319E-02  2.30897331E-22  9.05267205E-17 -6.59021636E-02  3.36179939E-07
  1.00000000E+00  2.76927859E-02  9.32256884E-02  1.71560558E-01  1.85445994E-07
  7.27068501E-02  4.99370001E-17  7.86728956E-07  3.08448746E-01  2.11850810E-16
  3.47296546E-07  1.36162758E-01  9.35202067E-17 -8.28263145E-02  5.02629767E-22
  1.97063449E-16 -1.43459385E-01  7.31814627E-07 -1.89080872E-01  1.14743334E-21
  4.49868245E-16 -3.27497677E-01  1.67063027E-06  2.33689906E-01  1.00000000E+00
 -1.06606438E-07 -6.71280072E-08 -8.57113918E-08  1.63324815E-02 -2.75914449E-07
 -1.89505389E-22  7.36972298E-02 -2.45940734E-07 -1.68918643E-22  3.21614292E-02
 -4.03994427E-08 -2.77474127E-23  2.05220712E-07  4.62855146E-17 -7.24380295E-22
  6.99224382E-07  6.73903913E-02  1.99821597E-08  1.09135485E-16 -6.04263941E-22
  8.45180975E-07  1.58898159E-01 -1.81072728E-22  0.00000000E+00  1.00000000E+00
 -4.17966338E-02 -2.63185301E-02 -3.36044214E-02 -2.75914449E-07 -9.18438674E-02
 -7.42983960E-17 -2.45940734E-07 -2.27274798E-02 -6.62270574E-17 -4.03994427E-08
  1.63222290E-02 -1.08787843E-17  8.04598215E-02 -7.24380295E-22 -2.37718515E-16
  1.39360499E-01 -8.82791242E-07  7.83430184E-03 -6.04263941E-22 -1.27775148E-16
  1.35694088E-02 -4.74505661E-07 -1.55987782E-16  1.38408286E-16  0.00000000E+00
  1.00000000E+00 -2.87070407E-17 -1.80762670E-17 -2.30804111E-17 -1.89505389E-22
 -7.42983960E-17  1.63324815E-02 -1.68918643E-22 -6.62270574E-17  7.36972298E-02
 -2.77474127E-23 -1.08787843E-17  3.21614292E-02  1.35430810E-16  1.71885841E-07
  6.73903913E-02  1.42002015E-16 -7.24380295E-22  1.94409013E-16  4.05285430E-07
  1.58898159E-01  1.18455317E-16 -6.04263941E-22 -1.14889399E-31 -2.46413027E-32
  0.00000000E+00 -8.71903380E-47  1.00000000E+00  1.44042170E-01  9.44843332E-02
  3.89967508E-01  5.11232768E-07  2.00436383E-01  1.37665043E-16  1.43562461E-06
  5.62857905E-01  3.86585793E-16  7.68287411E-07  3.01218465E-01  2.06884860E-16
 -1.10337156E-01  6.69578736E-22  2.62518267E-16 -1.91109560E-01  9.74887573E-07
 -2.56977373E-01  1.55946184E-21  6.11410126E-16 -4.45097866E-01  2.27053203E-06
  1.67279760E-01  7.63640773E-01 -4.56346313E-22  0.00000000E+00  0.00000000E+00
  1.00000000E+00 -8.10055998E-07  2.41596781E-07 -4.47048188E-07  1.20804491E-01
 -1.12917693E-06 -7.75548775E-22  3.39238624E-01 -9.71505476E-07 -6.67255822E-22
  1.81546597E-01 -2.13675860E-07 -1.46758269E-22  2.41157610E-07  1.58221701E-16
 -1.38089127E-21  1.59284114E-06  2.30366292E-01 -1.29403997E-07  3.68501406E-16
 -1.57191557E-21  2.51279861E-06  5.36527554E-01 -2.56464953E-23 -3.66232710E-22
  5.01520641E-01  0.00000000E+00  0.00000000E+00  0.00000000E+00  1.00000000E+00
 -3.17594459E-01  9.47215985E-02 -1.75271867E-01 -1.12917693E-06 -3.21906059E-01
 -3.04065391E-16 -9.71505476E-07 -4.16544957E-02 -2.61607534E-16 -2.13675860E-07
  9.77718098E-02 -5.75387541E-17  9.45494148E-02 -1.38089127E-21 -3.83177187E-16
  1.63764390E-01 -1.42296642E-06 -5.07347549E-02 -1.57191557E-21 -2.47791390E-16
 -8.78751731E-02 -9.20197858E-07 -1.68743049E-17  0.00000000E+00  0.00000000E+00
  5.01520641E-01  0.00000000E+00  0.00000000E+00  0.00000000E+00  1.00000000E+00
 -2.18132329E-16  6.50573153E-17 -1.20381384E-16 -7.75548775E-22 -3.04065391E-16
  1.20804491E-01 -6.67255822E-22 -2.61607534E-16  3.39238624E-01 -1.46758269E-22
 -5.75387541E-17  1.81546597E-01  3.38987081E-16  5.87571952E-07  2.30366292E-01
  2.70699444E-16 -1.38089127E-21  6.03417177E-16  1.36846645E-06  5.36527554E-01
  3.08146398E-16 -1.57191557E-21 -6.12714090E-33  0.00000000E+00  0.00000000E+00
  0.00000000E+00  5.01520641E-01  0.00000000E+00  0.00000000E+00  0.00000000E+00
  1.00000000E+00 -5.35562832E-02  4.21140906E-02 -4.55243480E-03 -2.23536097E-07
 -8.76406394E-02 -1.38539919E-16  5.55760557E-08  2.17894163E-02 -4.76253324E-17
  1.01180058E-08  3.96691413E-03 -8.09139389E-18  7.50661037E-02 -8.85522427E-22
 -3.47182191E-16  6.33277971E-02 -3.23047588E-07  5.73622084E-02 -3.72558236E-22
 -1.46066977E-16 -4.95134734E-02  2.52577997E-07  0.00000000E+00  0.00000000E+00
  8.14604693E-23 -4.90613279E-16 -1.83475777E-31  0.00000000E+00  0.00000000E+00
  0.00000000E+00  1.43266059E-31  1.00000000E+00  3.25005190E-22 -2.55568483E-22
  2.76263559E-23 -4.52330812E-17  7.62588269E-22 -1.67977525E-07 -3.61368634E-17
  5.21126509E-23 -1.34197820E-07 -6.24460672E-18  7.78183506E-24 -2.31899653E-08
 -8.85522427E-22  3.85037829E-02 -5.57863456E-07 -1.53376983E-21 -1.50221781E-16
 -3.72558236E-22  8.59488256E-02 -4.59000495E-07 -6.45289793E-22 -1.23599908E-16
  3.70562512E-54 -1.75996626E-53 -1.58894683E-31  1.03677711E-67 -1.41093672E-22
  0.00000000E+00  1.24072047E-31  0.00000000E+00  0.00000000E+00  0.00000000E+00
  1.00000000E+00  1.27423101E-16 -1.00199411E-16  1.08313222E-17  7.62588269E-22
  2.53750951E-16 -6.58580782E-02  5.21126509E-23 -1.57053264E-17 -5.26142441E-02
  7.78183506E-24 -3.19362296E-18 -9.09196957E-03 -3.47182191E-16 -5.57863456E-07
 -1.80214852E-01 -3.00893632E-16  1.91807325E-21 -1.46066977E-16 -4.59000495E-07
 -9.40091210E-02 -5.79561014E-18  3.44818310E-22  2.25495749E-47 -1.28693693E-46
  1.03677711E-67 -1.58894683E-31  8.49767126E-16  0.00000000E+00  0.00000000E+00
  1.24072047E-31  0.00000000E+00  0.00000000E+00  0.00000000E+00  1.00000000E+00
 -9.27622035E-02  7.29437447E-02 -7.88504837E-03 -7.23130927E-07 -1.51798040E-01
 -1.49492016E-16 -1.72135088E-07  3.77403760E-02 -1.02157685E-17 -2.88550304E-08
  6.87089683E-03 -1.52549188E-18  6.33277971E-02 -1.53376983E-21 -3.00893632E-16
  1.48190745E-01 -1.67526175E-06 -4.95134734E-02 -6.45289793E-22 -5.79561014E-18
  1.88973964E-04 -4.80523068E-07  0.00000000E+00  0.00000000E+00 -1.41093672E-22
 -8.49767126E-16  0.00000000E+00  0.00000000E+00  0.00000000E+00  0.00000000E+00
  0.00000000E+00  0.00000000E+00  0.00000000E+00  0.00000000E+00  1.00000000E+00
  4.73198302E-07 -3.72100433E-07  4.02231875E-08 -6.58580782E-02  9.42329279E-07
  7.62588269E-22 -5.26142441E-02 -5.83232843E-08  5.21126509E-23 -9.09196957E-03
 -1.18598351E-08  7.78183506E-24 -3.23047588E-07 -1.50221781E-16  1.91807325E-21
 -1.67526175E-06 -1.80214852E-01  2.52577997E-07 -1.23599908E-16  3.44818310E-22
 -4.80523068E-07 -9.40091210E-02 -1.66886519E-38  1.20718427E-37  8.49767126E-16
 -1.41093672E-22  1.03677711E-67  0.00000000E+00  0.00000000E+00  0.00000000E+00
  0.00000000E+00  0.00000000E+00  0.00000000E+00  0.00000000E+00  0.00000000E+00
  1.00000000E+00  4.38364541E-03  4.91183080E-02  1.84617947E-01 -1.33636936E-02
 -3.93083942E-03 -3.59879875E-12 -3.12110841E-01 -9.18052772E-02 -8.40504230E-11
 -2.50150528E-01 -7.35800733E-02 -6.73647145E-11 -1.94298470E-02  1.66821969E-11
  4.90695456E-12  2.82937909E-02  1.82213683E-02 -1.77374224E-01  1.52291046E-10
  4.47953735E-11  2.58292780E-01  1.66342074E-01  3.00020831E-09  1.98717399E-06
 -3.75774803E-06 -3.72880942E-06 -1.01194919E-15  9.36879985E-04 -2.81937965E-03
 -2.79766746E-03 -7.59249666E-13 -2.79608785E-05  1.31427722E-14  1.30415590E-14
  3.74395367E-07  4.84282150E-05  1.00000000E+00  4.46697561E-02  7.76711434E-02
  3.39007993E-01 -6.30572704E-02 -1.85478664E-02 -1.69811155E-11 -4.80385372E-01
 -1.41302084E-01 -1.29366201E-10 -4.26112371E-01 -1.25338050E-01 -1.14750660E-10
 -4.09246037E-02  3.51372967E-11  1.03353964E-11  5.95945084E-02  3.83792150E-02
 -2.15907375E-01  1.85375075E-10  5.45268151E-11  3.14404849E-01  2.02478578E-01
  1.52795124E-04  1.83200904E-03 -1.66760040E-03 -1.65475812E-03 -4.49079303E-13
  1.40061128E-02 -2.50696576E-02 -2.48765949E-02 -6.75117634E-12 -2.57882820E-03
  1.21215618E-12  1.20282130E-12  3.45304362E-05  4.46652800E-03  8.49094041E-01
  1.00000000E+00  4.90150599E-03  4.66798838E-02  6.30585285E-02 -1.56375345E-02
 -5.08978674E-03 -4.65984900E-12 -1.25010940E-01 -5.63393888E-02 -5.15803623E-11
  2.93852562E-04 -1.53395179E-02 -1.40437784E-11 -2.38585054E-02  2.26095739E-11
  7.39390769E-12  3.32480421E-02  2.46956306E-02 -9.14796635E-02  1.07109390E-10
  4.14997529E-11  1.13118726E-01  1.16991764E-01  6.42911186E-11  4.62496017E-07
 -9.89487144E-07 -1.04600033E-06 -2.83870549E-16  7.46698096E-04 -2.17363631E-03
 -2.46867594E-03 -6.69965753E-13 -1.20557486E-05  5.66988076E-15  6.03427699E-15
 -1.35380992E-06  2.08922593E-05  0.00000000E+00  0.00000000E+00  1.00000000E+00
  1.44174459E-03  1.37305697E-02  1.85482365E-02 -5.08978674E-03  1.69111782E-04
 -1.37066283E-12 -5.63393888E-02  4.99545029E-02 -1.51720121E-11 -1.53395179E-02
  4.79316706E-02 -4.13088173E-12 -7.01781679E-03  7.39390769E-12 -3.52661977E-13
  1.53011456E-02 -1.30956660E-03 -2.69081197E-02  4.14997529E-11 -2.17706493E-11
  1.07497965E-01 -8.08426112E-02  6.37960094E-11  4.58934312E-07 -1.04600033E-06
 -9.73314024E-07 -2.81684448E-16  7.40947736E-04 -2.46867594E-03 -2.13546596E-03
 -6.64806312E-13 -1.19629066E-05  6.03427699E-15  5.57657956E-15  1.68717850E-06
  2.07079378E-05  1.70914081E-16  0.00000000E+00 -4.44285356E-32  1.00000000E+00
  1.31995944E-12  1.25707392E-11  1.69814544E-11 -4.65984900E-12 -1.37066283E-12
  1.66623787E-03 -5.15803623E-11 -1.51720121E-11  6.65263502E-02 -1.40437784E-11
 -4.13088173E-12  5.24436853E-02 -1.08028266E-11 -9.38566806E-03 -2.76073031E-03
  1.14811179E-11  7.39390769E-12 -8.34859615E-11 -1.26171310E-01 -3.71124311E-02
  6.44400198E-11  4.14997529E-11  1.73133868E-20  1.24548656E-16 -2.83870549E-16
 -2.81684448E-16  6.46309990E-08  2.01083342E-13 -6.69965753E-13 -6.64806312E-13
  3.14198581E-04 -3.95883978E-15 -1.52704115E-06 -1.51528133E-06  4.66506013E-17
  6.03427699E-15  0.00000000E+00 -2.42028645E-25  0.00000000E+00  2.33614111E-42
  1.00000000E+00  1.05757701E-01  8.10985980E-02  2.33553246E-01 -1.31376053E-01
 -4.70977362E-02 -4.31193584E-11 -2.92012886E-01 -1.55703176E-01 -1.42550823E-10
  1.86666220E-02 -5.53678416E-02 -5.06908824E-11 -7.05603659E-02  7.53221395E-11
  2.73124666E-11  9.23817063E-02  8.22716846E-02 -1.27689948E-01  1.89759004E-10
  8.38494833E-11  1.29579679E-01  2.07266987E-01  2.98338457E-04  3.63314533E-03
 -3.07073016E-03 -3.60136987E-03 -9.77363791E-13  2.48567277E-02 -3.70960571E-02
 -4.71891430E-02 -1.28065046E-11 -5.10653205E-03  2.40385552E-12  2.84406028E-12
 -1.63496151E-03  8.85767706E-03 -9.48661841E-16 -7.55923606E-16  6.37683639E-01
 -1.01912564E-32 -9.49134717E-42  1.00000000E+00  3.11079070E-02  2.38546000E-02
  6.86980958E-02 -4.70977362E-02  1.48888683E-02 -1.26832655E-11 -1.55703176E-01
  1.91532921E-01 -4.19303533E-11 -5.53678416E-02  1.90614865E-01 -1.49103776E-11
 -2.07548508E-02  2.73124666E-11 -9.49840826E-12  6.54730075E-02 -3.52711632E-02
 -3.75591281E-02  8.38494833E-11 -7.06407325E-11  2.46310358E-01 -2.62315615E-01
  2.96040937E-04  3.60516629E-03 -3.60136987E-03 -3.01504625E-03 -9.69837063E-13
  2.46653047E-02 -4.71891430E-02 -3.63664247E-02 -1.27078810E-11 -5.06720639E-03
  2.84406028E-12  2.35988103E-12  1.78440687E-03  8.76312606E-03 -1.78069719E-17
 -9.44904508E-17 -1.01912564E-32  6.37683639E-01 -2.37283679E-42  0.00000000E+00
  1.00000000E+00  2.84802010E-11  2.18395857E-11  6.28951210E-11 -4.31193584E-11
 -1.26832655E-11  2.87423465E-02 -1.42550823E-10 -4.19303533E-11  2.37331950E-01
 -5.06908824E-11 -1.49103776E-11  2.06900939E-01 -4.93683083E-11 -6.51035957E-02
 -1.91497791E-02  4.24102739E-11  2.73124666E-11 -1.99458696E-10 -3.53901413E-01
 -1.04097689E-01  1.30199868E-10  8.38494833E-11  8.03415652E-14  9.78394088E-13
 -9.77363791E-13 -9.69837063E-13  5.58589292E-04  6.69383502E-12 -1.28065046E-11
 -1.27078810E-11  1.04593123E-02 -2.17585954E-12 -1.71660842E-03 -1.70338873E-03
  2.19872443E-14  2.84406028E-12 -3.31680699E-26 -1.76002180E-25 -9.49134717E-42
 -2.37283679E-42  6.37683639E-01  0.00000000E+00  0.00000000E+00  1.00000000E+00
  4.38335396E-03  4.91168970E-02  1.84615961E-01  6.65826554E-09 -3.93058479E-03
 -1.33629557E-02  1.55511525E-07 -9.18033728E-02 -3.12107350E-01  1.24640785E-07
 -7.35793986E-02 -2.50150626E-01  3.42165699E-02 -3.08646547E-08  1.82203821E-02
 -2.67967501E-03 -9.07854109E-09  3.12371839E-01 -2.81771346E-07  1.66338539E-01
 -2.44634401E-02 -8.28803291E-08  2.99996595E-09  1.98705704E-06 -4.81884360E-12
 -3.72858672E-06 -3.75754585E-06  9.36850703E-04 -3.61560341E-09 -2.79757800E-03
 -2.81930619E-03  1.43042101E-05  6.25857364E-11  4.84257977E-05 -2.40262918E-05
  6.21033927E-11  8.10208870E-05  6.12560316E-03  4.74727059E-05  3.68347952E-11
 -4.74730108E-05  1.17368748E-02  9.10681981E-09 -1.17369502E-02  1.00000000E+00
  4.46681993E-02  7.76701933E-02  3.39004805E-01  3.14182357E-08 -1.85471784E-02
 -6.30555342E-02  2.39356429E-07 -1.41299672E-01 -4.80381765E-01  2.12316196E-07
 -1.25336967E-01 -4.26112761E-01  7.20713529E-02 -6.50111169E-08  3.83781189E-02
 -5.64427713E-03 -1.91223942E-08  3.80234584E-01 -3.42986137E-07  2.02475567E-01
 -2.97781196E-02 -1.00886071E-07  1.52790657E-04  1.83196220E-03 -2.13856045E-09
 -1.65471402E-03 -1.66756583E-03  1.40058524E-02 -3.21500094E-08 -2.48761130E-02
 -2.50693204E-02  1.31931437E-03  5.77244467E-09  4.46643683E-03 -2.21600716E-03
  5.72795686E-09  6.12560316E-03  3.29867993E-02  4.81622555E-03  3.73698272E-09
 -4.81625648E-03  5.04042008E-02  3.91093867E-08 -5.04045245E-02  8.49094041E-01
  1.00000000E+00 -2.44207009E-09 -2.32583235E-08 -3.14195963E-08  1.66612206E-03
  2.53588345E-09  8.62133755E-09  6.65250683E-02  2.80714230E-08  9.54354635E-08
  5.24433362E-02  7.64309512E-09  2.59845155E-08 -2.83893694E-08 -9.38510831E-03
 -1.36797210E-08  6.68813076E-09 -2.76053927E-03 -1.80488444E-07 -1.26168677E-01
 -7.67831355E-08  7.41576856E-08 -3.71113019E-02  8.24415195E-17  5.93086207E-13
  6.46263923E-08 -1.34134748E-12 -1.35176544E-12  9.57570571E-10  3.14187708E-04
 -3.16584387E-09 -3.19043230E-09  9.61839869E-12 -1.52695032E-06  2.87348406E-11
 -1.62149205E-11 -1.51518222E-06 -4.74727059E-05 -4.81622555E-03 -2.22378380E-05
 -1.86635700E-11  2.40537746E-05 -8.51722214E-03 -7.95469459E-09  1.02520810E-02
 -7.94969426E-22  0.00000000E+00  1.00000000E+00  1.44163123E-03  1.37301242E-02
  1.85479817E-02  2.53588345E-09  1.69109837E-04 -5.08944829E-03  2.80714230E-08
  4.99536193E-02 -5.63385732E-02  7.64309512E-09  4.79313754E-02 -1.53394815E-02
  1.67591429E-02 -1.36797210E-08 -1.30953623E-03  1.57286337E-03  6.52493367E-10
  1.06548038E-01 -7.67831355E-08 -8.08411630E-02  3.04449759E-02  4.02801553E-08
  6.37892365E-11  4.58901250E-07 -1.34134748E-12 -9.73243021E-07 -1.04593032E-06
  7.40921517E-04 -3.16584387E-09 -2.13538824E-03 -2.46860128E-03  7.44224891E-06
  2.87348406E-11  2.07066712E-05 -9.51595210E-06  2.65551544E-11 -3.68347952E-11
 -3.73698272E-09 -1.86635700E-11  1.81578214E-06  1.86636899E-11 -7.95469459E-09
  1.73479298E-03  7.95474568E-09 -5.20991163E-17 -1.29938139E-16  0.00000000E+00
  1.00000000E+00  4.90116745E-03  4.66788152E-02  6.30582651E-02  8.62133755E-09
 -5.08944829E-03 -1.56366651E-02  9.54354635E-08 -5.63385732E-02 -1.25011280E-01
  2.59845155E-08 -1.53394815E-02  2.93128746E-04  4.07211986E-02 -4.18312061E-08
  2.46942843E-02 -4.03778604E-03 -1.36797210E-08  1.43704780E-01 -1.98177314E-07
  1.16990338E-01 -2.26637570E-02 -7.67831355E-08  6.42846739E-11  4.62465438E-07
 -1.35176544E-12 -1.04593032E-06 -9.89427448E-07  7.46676096E-04 -3.19043230E-09
 -2.46860128E-03 -2.17358667E-03  4.85529574E-06  2.69997891E-11  2.08911231E-05
 -1.11168108E-05  2.87348406E-11  4.74730108E-05  4.81625648E-03  2.40537746E-05
  1.86636899E-11 -2.22381470E-05  1.02520810E-02  7.95474568E-09 -8.51735383E-03
  1.76933378E-15  0.00000000E+00  0.00000000E+00 -4.44285356E-32  1.00000000E+00
 -5.26935081E-08 -4.04088625E-08 -1.16370613E-07  2.87412749E-02  2.34662721E-08
  7.97791605E-08  2.37328407E-01  7.75803377E-08  2.63752767E-07  2.06899679E-01
  2.75876935E-08  9.37909105E-08 -1.13625905E-07 -6.51017386E-02 -5.05333168E-08
  3.98697278E-08 -1.91490498E-02 -3.93148272E-07 -3.53896778E-01 -1.55140110E-07
  1.99150133E-07 -1.04095331E-01  3.82592003E-10  4.65920008E-09  5.58573431E-04
 -4.61844547E-09 -4.65431595E-09  3.18769014E-08  1.04591044E-02 -6.05165130E-08
 -6.09865318E-08  5.27158831E-09 -1.71657073E-03  1.35437412E-08 -8.92108681E-09
 -1.70334124E-03 -1.17368748E-02 -5.04042008E-02 -8.51722214E-03 -7.95469459E-09
  1.02520810E-02 -6.24406332E-02 -6.57216628E-08  8.47026621E-02 -2.71712829E-22
 -1.44180986E-21  6.37683639E-01 -9.71913950E-39  0.00000000E+00  1.00000000E+00
  3.11066448E-02  2.38546299E-02  6.86972544E-02  2.34662721E-08  1.48883921E-02
 -4.70961623E-02  7.75803377E-08  1.91530279E-01 -1.55701603E-01  2.75876935E-08
  1.90613790E-01 -5.53677416E-02  6.70769665E-02 -5.05333168E-08 -3.52703230E-02
  1.47617379E-02  1.75738947E-08  2.32087862E-01 -1.55140110E-07 -2.62312663E-01
  9.06260378E-02  1.30700678E-07  2.96031077E-04  3.60506232E-03 -4.61844547E-09
 -3.01495496E-03 -3.60128322E-03  2.46647953E-02 -6.05165130E-08 -3.63656288E-02
 -4.71884110E-02  4.07889854E-03  1.35437412E-08  8.76291726E-03 -3.49602042E-03
  1.12379541E-08 -9.10681981E-09 -3.91093867E-08 -7.95469459E-09  1.73479298E-03
  7.95474568E-09 -6.57216628E-08  2.22614849E-02  6.57220849E-08 -1.78069719E-17
 -9.44904508E-17 -9.71913950E-39  6.37683639E-01  0.00000000E+00  0.00000000E+00
  1.00000000E+00  1.05754420E-01  8.10994749E-02  2.33552618E-01  7.97791605E-08
 -4.70961623E-02 -1.31373305E-01  2.63752767E-07 -1.55701603E-01 -2.92016138E-01
  9.37909105E-08 -5.53677416E-02  1.86639028E-02  1.15284546E-01 -1.39362218E-07
  8.22699263E-02 -1.49157078E-02 -5.05333168E-08  1.76070561E-01 -3.51101971E-07
  2.07266601E-01 -4.57920576E-02 -1.55140110E-07  2.98330287E-04  3.63306207E-03
 -4.65431595E-09 -3.60128322E-03 -3.07068019E-03  2.48563615E-02 -6.09865318E-08
 -4.71884110E-02 -3.70958088E-02  1.13739075E-03  1.14475261E-08  8.85753869E-03
 -5.23974400E-03  1.35437412E-08  1.17369502E-02  5.04045245E-02  1.02520810E-02
  7.95474568E-09 -8.51735383E-03  8.47026621E-02  6.57220849E-08 -6.24417212E-02
 -1.42455775E-16 -7.55923606E-16  0.00000000E+00  0.00000000E+00  6.37683639E-01
  0.00000000E+00  0.00000000E+00  1.00000000E+00  4.38304200E-03  4.91153866E-02
  1.84613834E-01  1.33621672E-02 -3.93030742E-03  3.59838768E-12  3.12103646E-01
 -9.18012219E-02  8.40484855E-11  2.50150756E-01 -7.35785864E-02  6.73647760E-11
 -1.94279931E-02  1.66806612E-11 -4.90639921E-12  2.82912995E-02 -1.82193061E-02
 -1.77369371E-01  1.52287392E-10 -4.47933526E-11  2.58287615E-01 -1.66334570E-01
  2.99971350E-09  1.98693521E-06  3.75733668E-06 -3.72835331E-06  1.01183841E-15