(INPUT FILE)
Create H  file=/usr/local/adf2006.01/atomicdata/SZ/H
XC
 GGA Blyp
End
End Input

 *******************************************************************************
 *                                                                             *
 *  -------------------------------------                                      *
 *   Amsterdam Density Functional  (ADF)         2006.01   June 30, 2006       *
 *  -------------------------------------                                      *
 *                                               Build 200609192153            *
 *                                                                             *
 *                                                                             *
 *                              =================                              *
 *                              |               |                              *
 *                              |     A D F     |                              *
 *                              |               |                              *
 *                              =================                              *
 *                                                                             *
 *                                                                             *
 *   Online information and documentation:  http://www.scm.com                 *
 *   E-mail:  support@scm.com   info@scm.com                                   *
 *                                                                             *
 *   Scientific publications using ADF results must be properly referenced     *
 *   See the User Manuals (or the web site) for recommended citations          *
 *                                                                             *
 ******************************  hp_itan2_linux  *******************************
 
 ADF 2006.01  RunTime: Oct29-2007 00:51:51
 Hydrogen (SZ)



 ===========================
 A T T A C H E D   F I L E S
 ===========================
  
 CREATE - Data File:    /usr/local/adf2006.01/atomicdata/SZ/H
                        Hydrogen (SZ)



 ===============================
 M O D E L   P A R A M E T E R S
 ===============================
  
 DENSITY FUNCTIONAL POTENTIAL (scf)
    LDA:                               Exchange only                           == Not Default ==
    Gradient Corrections:              Becke88 LYP                             == Not Default ==

 SPIN  (restricted / unrestr.)
    Molecule:                          Restricted                               

 OTHER ASPECTS
    Relativistic Corrections:          ---                                      
    Core Treatment:                    Frozen Orbital(s)                        

    Electric Field:                    ---                                      

    Hyperfine or Zeeman Interaction:   ---                                      



 =====================================
 S Y M M E T R Y ,   E L E C T R O N S
 =====================================
  
 Symmetry: ATOM

 Irreducible Representations, including subspecies
 -------------------------------------------------
 S
 P:x  P:y  P:z
 D:z2  D:x2-y2  D:xy  D:xz  D:yz
 F:z3  F:z  F:xyz  F:z2x  F:z2y  F:x  F:y


 Configuration of Valence Electrons
 ==================================

          Occupation Numbers
          -------------------------------------------------
 S        1
 P        0
 D        0
 F        0
          -------------------------------------------------

 Total:   1

 Net Charge: 0 (Nuclei minus Electrons)

 Preset values for MO occupations will be applied through SCF cycle no. 1000000
 Thereafter, the program will assign electrons to MOs that are spatially
 similar to the occupied MOs in a "reference" cycle ("KeepOrbitals").
 The reference cycle is always the PREVIOUS cycle: it will evolve with
 the SCF procedure.



 ================================
 (Slater-type)  F U N C T I O N S  ***  (Basis and Fit)  ***
 ================================
  

 Valence Basis Sets:   1
 -----------------------
   1 S    1.240000

 Frozen Core Shells
 ------------------

 Charge Fitting Sets (for the computation of the Coulomb Potential):  11
 -----------------------------------------------------------------------
   1 S    3.160000
   1 S    2.090000
   1 S    1.380000
   2 S    1.500000
   2 P    4.000000
   2 P    2.650000
   2 P    1.750000
   3 D    4.000000
   3 D    2.500000
   4 F    3.000000
   5 G    4.000000


 BAS: List of all Elementary Cartesian Basis Functions
 =====================================================

 The numbering in the list below (to the right of the function characteristics) is referred
 to in print-outs of MO eigenvectors and Mulliken populations in the BAS representation
 (as contrasted to the SFO representation).

 Notes:
 1. The functions are characterized by a polynomial prefactor (powers of x,y,z and r) and
    an exponential decay factor alpha.
 2. Since the basis sets are specific for an atom TYPE, the individual functions occur on
    all atoms of that type.
 3. The word 'Core' in the left margin signals that it is a Core Function (CF) : not a
    degree of freedom in the valence set, but only used to ensure orthogonalization of
    the other valence basis functions on the frozen Core Orbitals.


 (power of) X  Y  Z  R     Alpha  on Atom
            ==========     =====     ==========

 H                                    1
                                  ---------------------------------------------------------------------------
            0  0  0  0     1.240      1
1
 ***************************************************************************************************



                                              ***********************
                                              *  T E C H N I C A L  *
                                              ***********************
  



 =============================================================
 P A R A L L E L I Z A T I O N  and  V E C T O R I Z A T I O N
 =============================================================
  
 Nr of parallel processes:                                1
 Internal max. (compile-time) nr of processes:          128
 Maximum vector length in NumInt loops:                 128



 ===============
 I O  vs.  C P U  ***  (store numerical data on disk or recalculate)  ***
 ===============
  
 Basis functions:   recalculate when needed
 Fit functions:     recalculate when needed

 IO buffersize (Mb):                                    512.000000



 =====================
 S C F   U P D A T E S
 =====================
  
 Max. nr. of cycles:                               100
 Convergence criterion:                              0.0000000100
   secondary criterion:                              0.0000000100

 Mix parameter (when DIIS does not apply):           0.2000000000
 Special mix parameter for the first cycle:          1.0000000000


 DIIS (Direct Inversion in Iteration Space)
    Replace damping when SCF Error is below:         0.5000000000
    Apply anyway after SCF cycle:
                                                     5
    (Max.) nr. of expansion vectors:                10

    Upperbound on expansion coefficients:            5.0000000000
    (when exceeded, IterationSpace is re-built)
    2nd Upperbound on coefficients:                 25.0000000000
    (when exceeded, simple damping will be used)
 Automatic ElectronSmearing (in case of problematic SCF convergence) disabled



 =================
 P R E C I S I O N  ***  (General: NumInt, NeglectFunctionTails, ...)  ***
 =================
  

 NumInt:           Target precision:                10.0000000000
 -------           Initial precision:               10.0000000000
                   Min. precision (optimization):   10.0000000000

 Neglect Functions:          Basis functions:        0.1000000000E-11
 ------------------          Fit functions:          0.1000000000E-11



 ===========================
 L I N E A R   S C A L I N G
 ===========================
  

 Cut-off radii density fit:                        0.1000000000E-13
 Overlap cut-off criterion AO matrix elements:     0.1000000000E-11
 Cut-offs for Coulomb potential and fitted density:0.1000000000E-13
 Cut-off criterion for Coulomb multipole terms:    0.1000000000E-13
1
 ***************************************************************************************************



                                            ***************************
                                            *  C O M P U T A T I O N  *
                                            ***************************
  

 Number of elements of the density matrix on this node (used, total):         1         1



 ====================================================
 Numerical Integration : Voronoi Polyhedra (Te Velde)  ***  (parameters, tests)  ***
 ====================================================
  
 General Accuracy Parameter :                         10.00

 Symmetry used in the points section:  ATOM  


 Summary of the Symmetry Unique Points:
 --------------------------------------
    Nr. of used Symmetry Operators                     1

    Points in the Atomic Spheres                      34
    Points in the Atomic Polyhedra                     0
    Points in the Outer Region                         0
    ----------------------------------------------------
    Total                                             34

    Sum of Weights                                 33854.777883

 Total nr. of points:         34
 Nr. of blocks:                1
 Block length:                34
 Nr. of dummy points:          0


 Test of Precision of the Numerical Integration Grid
 ===================================================

 Integral of the Total Core Density:                   0.00000000000000



 =====
 S C F
 =====
  

 CYCLE    1
 orbitals (Q,E):
 ---------------
 S :1...1            ( 1.00    -0.1216)   

 CYCLE    2
 d-Pmat  mean:  0.00E+00
 imax=      1:  0.00E+00
 orbitals (Q,E):
 ---------------
 S :1...1            ( 1.00    -0.1216)   

 SCF CONVERGED

 CYCLE    3
1
 ***************************************************************************************************



                                                *******************
                                                *  R E S U L T S  *
                                                *******************
  
 *** Setting up for NEW gradients in focky
 *** Using FIT density in focky

 Orbital Energies, per Irrep and Spin:
 ======================================
                        Occup              E (au)              E (eV)       Diff (eV) with prev. cycle
                        -----      --------------------        ------       --------------------------
 S
               1        1.000     -0.12163331707833E+00        -3.310               0.00E+00


 Partially Occupied:
               1 S                -0.12163331707833E+00
  


 Orbital Energies of the Core Orbitals:
 ======================================
 (Note that the atoms are grouped by atomtype, see the labels, and may hence NOT be in input order)

 AtomType  Orbital  Atom                   E (au)                        E (eV)
 --------  -------  ----           --------------------        ----------------



 =======================================
 M U L L I K E N   P O P U L A T I O N S
 =======================================
  
 The survey below gives for each atom:
 a) the total charge (Z minus electrons)
 b) the net spin polarization (nr of electrons spin-A minus spin-B)
 c) for each spin the atomic electron valence density (integrated) per L-value.

 Atom              Charge    Spin density          S         P         D         F
 ----              ------    ------------       ------    ------    ------    ------
 1 H               0.0000                       1.0000    0.0000    0.0000    0.0000

 Populations of individual BAS functions
 ----------------------------------------
 1 H            1.0000

 Gross Charges per Atom (Z minus electrons)
 ==========================================
             0.0000
 Net Total:  0.00000000


 Atom-Atom Population Matrix (off-diagonal elements not doubled)
 ===============================================================

     1 :     1.0000



 =============
 Dipole Moment  ***  (Debye)  ***
 =============
  
 Vector   :         0.00000000      0.00000000      0.00000000
 Magnitude:         0.00000000

 This molecular dipole moment is calculated with analytic integration



 =========================================
 Quadrupole Moment (Buckingham convention)  ***  (a.u.)  ***
 =========================================
  
      quad-xx        quad-xy        quad-xz        quad-yy        quad-yz        quad-zz
      0.00000000     0.00000000     0.00000000     0.00000000     0.00000000     0.00000000

 This molecular quadrupole moment is calculated with analytic integration



 ===============================================================================
 Electrostatic potential at the Nuclei due to valence electrons and other nuclei
 ===============================================================================
  
         Atom                  Potential
         ----                  ---------
     1)   H                   1.23926638
 
 
 ========================
 No memory problems found
 ========================
 
 Maximum number of active allocate calls:          73
 
 *******************************************************************************

                             A D F   E X I T
 NORMAL TERMINATION



 =================
 Timing Statistics
 =================
  
 Total Used :                     CPU=        0.24      System=        0.29     Elapsed=        0.53

 Calls  Section                     ( Mean, Percentage )
 ---------------------------------------------------------------------------------------------------
     3  ><      ................      0.00    1.23             0.00    0.34             0.00    0.83
     1  INIT    ................      0.01    3.28             0.00    0.67             0.01    1.83
     1  GEOMET  ................      0.05   21.72             0.28   95.29             0.33   62.04
     1  INPUTA  ................      0.01    2.46             0.00    0.34             0.01    1.34
     1  MAINSY  ................      0.01    3.69             0.00    0.00             0.01    1.63
     1  SYMFIT  ................      0.00    0.82             0.00    0.00             0.00    0.25
     1  CORORT  ................      0.00    0.00             0.00    0.00             0.00    0.15
     1  SYMORB  ................      0.00    0.82             0.00    0.00             0.00    0.31
     1  FITINT  ................      0.01    3.69             0.00    0.67             0.01    2.00
     1  CLSMAT  ................      0.00    0.00             0.00    0.00             0.00    0.24
     1  ORTHON  ................      0.00    1.23             0.00    0.00             0.00    0.48
     1  CRTP12  ................      0.01    2.46             0.00    0.00             0.01    1.06
     1  ETALOW  ................      0.00    0.41             0.00    0.00             0.00    0.27
     1  GENPT   ................      0.03   10.66             0.00    0.34             0.03    5.00
     1  PTCOR   ................      0.01    2.46             0.00    0.00             0.01    1.07
     1  PTBAS   ................      0.00    1.23             0.00    0.00             0.00    0.55
     3  FOCKY   ................      0.02   28.28             0.00    1.35             0.02   13.29
     3  FOCKTR  ................      0.00    1.23             0.00    0.00             0.00    0.81
     3  FOCKNM  ................      0.00    0.00             0.00    0.00             0.00    0.03
     3  SDIIS   ................      0.00    1.64             0.00    0.00             0.00    0.71
     3  EMERGE  ................      0.00    3.69             0.00    0.00             0.00    1.65
     1  COREPS  ................      0.01    4.10             0.00    0.34             0.01    1.88
     1  POPAN   ................      0.00    1.64             0.00    0.00             0.00    0.79
     1  DEBYE   ................      0.00    0.82             0.00    0.00             0.00    0.34
     1  QMPOT   ................      0.00    0.82             0.00    0.00             0.00    0.43
     1  EXIT PROCEDURE .........      0.00    1.64             0.00    0.67             0.01    1.00


 Currently Open Files (EXIT00)
 ====================

 Unit    Access Format  Status   Type       Ident (file)
 -------------------------------------------------------
   3      SEQ    FORM   TRANSP  NORMAL      LOGFILE
                                          ( logfile )


 Buffered I/O statistics
 =======================
 Memory available:                    536870912
 Number of records fitting in memory:    129055
 Input :   4.7% of                          644  *4k bytes
 Output:  14.0% of                          705  *4k bytes
 Records from serial files evicted:           0
                    others evicted:           0
 Hash table lookups:       3571 with          0 conflicts (  0.00%)

 ***************************************************************************************************
 (LOGFILE)
 <Oct29-2007> <00:51:51>  ADF 2006.01  RunTime: Oct29-2007 00:51:51
 <Oct29-2007> <00:51:51>  Hydrogen (SZ)
 <Oct29-2007> <00:51:51>  RunType   : CREATE
 <Oct29-2007> <00:51:51>  Net Charge: 0 (Nuclei minus Electrons)
 <Oct29-2007> <00:51:51>  Symmetry  : ATOM
 <Oct29-2007> <00:51:51>  >>>> CORORT
 <Oct29-2007> <00:51:51>  >>>> FITINT
 <Oct29-2007> <00:51:51>  >>>> CLSMAT
 <Oct29-2007> <00:51:51>  >>>> ORTHON
 <Oct29-2007> <00:51:51>  >>>> CRTP12
 <Oct29-2007> <00:51:51>  >>>> GENPT
 <Oct29-2007> <00:51:51>  Acc.Num.Int.=  10.000
 <Oct29-2007> <00:51:51>  Block Length=  34
 <Oct29-2007> <00:51:51>  >>>> PTCOR
 <Oct29-2007> <00:51:51>  >>>> PTBAS
 <Oct29-2007> <00:51:51>  >>>> CYCLE
 <Oct29-2007> <00:51:51>    1
 <Oct29-2007> <00:51:51>    2  ErrMat   0.00000000  MaxEl  0.00000000
 <Oct29-2007> <00:51:51>  SCF converged
 <Oct29-2007> <00:51:51>    3  ErrMat   0.00000000  MaxEl  0.00000000
 <Oct29-2007> <00:51:51>   Solutions with partially occupied orbitals may not be
 <Oct29-2007> <00:51:51>   lowest in energy. You might consider lowering the
 <Oct29-2007> <00:51:51>   symmetry in the input and explicitly specifying integer
 <Oct29-2007> <00:51:51>   occupations. In that case always check that you obtain
 <Oct29-2007> <00:51:51>   an aufbau solution.
 <Oct29-2007> <00:51:51>  >>>> COREPS
 <Oct29-2007> <00:51:51>  >>>> POPAN
 <Oct29-2007> <00:51:51>  >>>> DEBYE
 <Oct29-2007> <00:51:51>  NORMAL TERMINATION
 <Oct29-2007> <00:51:51>  END
(INPUT FILE)
Create C  file=/usr/local/adf2006.01/atomicdata/SZ/C
XC
 GGA Blyp
End
End Input

 *******************************************************************************
 *                                                                             *
 *  -------------------------------------                                      *
 *   Amsterdam Density Functional  (ADF)         2006.01   June 30, 2006       *
 *  -------------------------------------                                      *
 *                                               Build 200609192153            *
 *                                                                             *
 *                                                                             *
 *                              =================                              *
 *                              |               |                              *
 *                              |     A D F     |                              *
 *                              |               |                              *
 *                              =================                              *
 *                                                                             *
 *                                                                             *
 *   Online information and documentation:  http://www.scm.com                 *
 *   E-mail:  support@scm.com   info@scm.com                                   *
 *                                                                             *
 *   Scientific publications using ADF results must be properly referenced     *
 *   See the User Manuals (or the web site) for recommended citations          *
 *                                                                             *
 ******************************  hp_itan2_linux  *******************************
 
 ADF 2006.01  RunTime: Oct29-2007 00:51:52
 Carbon (SZ)



 ===========================
 A T T A C H E D   F I L E S
 ===========================
  
 CREATE - Data File:    /usr/local/adf2006.01/atomicdata/SZ/C
                        Carbon (SZ)



 ===============================
 M O D E L   P A R A M E T E R S
 ===============================
  
 DENSITY FUNCTIONAL POTENTIAL (scf)
    LDA:                               Exchange only                           == Not Default ==
    Gradient Corrections:              Becke88 LYP                             == Not Default ==

 SPIN  (restricted / unrestr.)
    Molecule:                          Restricted                               

 OTHER ASPECTS
    Relativistic Corrections:          ---                                      
    Core Treatment:                    Frozen Orbital(s)                        

    Electric Field:                    ---                                      

    Hyperfine or Zeeman Interaction:   ---                                      



 =====================================
 S Y M M E T R Y ,   E L E C T R O N S
 =====================================
  
 Symmetry: ATOM

 Irreducible Representations, including subspecies
 -------------------------------------------------
 S
 P:x  P:y  P:z
 D:z2  D:x2-y2  D:xy  D:xz  D:yz
 F:z3  F:z  F:xyz  F:z2x  F:z2y  F:x  F:y


 Configuration of Valence Electrons
 ==================================

          Occupation Numbers
          -------------------------------------------------
 S        2*2
 P        2
 D        0
 F        0
          -------------------------------------------------

 Total:   6

 Net Charge: 0 (Nuclei minus Electrons)

 Preset values for MO occupations will be applied through SCF cycle no. 1000000
 Thereafter, the program will assign electrons to MOs that are spatially
 similar to the occupied MOs in a "reference" cycle ("KeepOrbitals").
 The reference cycle is always the PREVIOUS cycle: it will evolve with
 the SCF procedure.



 ================================
 (Slater-type)  F U N C T I O N S  ***  (Basis and Fit)  ***
 ================================
  

 Valence Basis Sets:   3
 -----------------------
   1 S    5.670000
   2 S    1.720000
   2 P    1.720000

 Frozen Core Shells
 ------------------

 Charge Fitting Sets (for the computation of the Coulomb Potential):  22
 -----------------------------------------------------------------------
   1 S   11.340000
   2 S   13.540000
   2 S    9.660000
   2 S    6.890000
   2 S    4.920000
   3 S    5.130000
   3 S    3.860000
   3 S    2.900000
   3 S    2.180000
   3 S    1.640000
   2 P    7.390000
   2 P    4.710000
   3 P    4.410000
   3 P    3.020000
   3 P    2.060000
   3 D    3.440000
   3 D    2.690000
   3 D    2.100000
   3 D    1.640000
   4 F    5.400000
   4 F    3.550000
   5 G    4.500000


 BAS: List of all Elementary Cartesian Basis Functions
 =====================================================

 The numbering in the list below (to the right of the function characteristics) is referred
 to in print-outs of MO eigenvectors and Mulliken populations in the BAS representation
 (as contrasted to the SFO representation).

 Notes:
 1. The functions are characterized by a polynomial prefactor (powers of x,y,z and r) and
    an exponential decay factor alpha.
 2. Since the basis sets are specific for an atom TYPE, the individual functions occur on
    all atoms of that type.
 3. The word 'Core' in the left margin signals that it is a Core Function (CF) : not a
    degree of freedom in the valence set, but only used to ensure orthogonalization of
    the other valence basis functions on the frozen Core Orbitals.


 (power of) X  Y  Z  R     Alpha  on Atom
            ==========     =====     ==========

 C                                    1
                                  ---------------------------------------------------------------------------
            0  0  0  0     5.670      1
            0  0  0  1     1.720      2
            1  0  0  0     1.720      3
            0  1  0  0     1.720      4
            0  0  1  0     1.720      5
1
 ***************************************************************************************************



                                              ***********************
                                              *  T E C H N I C A L  *
                                              ***********************
  



 =============================================================
 P A R A L L E L I Z A T I O N  and  V E C T O R I Z A T I O N
 =============================================================
  
 Nr of parallel processes:                                1
 Internal max. (compile-time) nr of processes:          128
 Maximum vector length in NumInt loops:                 128



 ===============
 I O  vs.  C P U  ***  (store numerical data on disk or recalculate)  ***
 ===============
  
 Basis functions:   recalculate when needed
 Fit functions:     recalculate when needed

 IO buffersize (Mb):                                    512.000000



 =====================
 S C F   U P D A T E S
 =====================
  
 Max. nr. of cycles:                               100
 Convergence criterion:                              0.0000000100
   secondary criterion:                              0.0000000100

 Mix parameter (when DIIS does not apply):           0.2000000000
 Special mix parameter for the first cycle:          1.0000000000


 DIIS (Direct Inversion in Iteration Space)
    Replace damping when SCF Error is below:         0.5000000000
    Apply anyway after SCF cycle:
                                                     5
    (Max.) nr. of expansion vectors:                10

    Upperbound on expansion coefficients:            5.0000000000
    (when exceeded, IterationSpace is re-built)
    2nd Upperbound on coefficients:                 25.0000000000
    (when exceeded, simple damping will be used)
 Automatic ElectronSmearing (in case of problematic SCF convergence) disabled



 =================
 P R E C I S I O N  ***  (General: NumInt, NeglectFunctionTails, ...)  ***
 =================
  

 NumInt:           Target precision:                10.0000000000
 -------           Initial precision:               10.0000000000
                   Min. precision (optimization):   10.0000000000

 Neglect Functions:          Basis functions:        0.1000000000E-11
 ------------------          Fit functions:          0.1000000000E-11



 ===========================
 L I N E A R   S C A L I N G
 ===========================
  

 Cut-off radii density fit:                        0.1000000000E-13
 Overlap cut-off criterion AO matrix elements:     0.1000000000E-11
 Cut-offs for Coulomb potential and fitted density:0.1000000000E-13
 Cut-off criterion for Coulomb multipole terms:    0.1000000000E-13
1
 ***************************************************************************************************



                                            ***************************
                                            *  C O M P U T A T I O N  *
                                            ***************************
  

 Number of elements of the density matrix on this node (used, total):        15        15



 ====================================================
 Numerical Integration : Voronoi Polyhedra (Te Velde)  ***  (parameters, tests)  ***
 ====================================================
  
 General Accuracy Parameter :                         10.00

 Symmetry used in the points section:  ATOM  


 Summary of the Symmetry Unique Points:
 --------------------------------------
    Nr. of used Symmetry Operators                     1

    Points in the Atomic Spheres                      48
    Points in the Atomic Polyhedra                     0
    Points in the Outer Region                         0
    ----------------------------------------------------
    Total                                             48

    Sum of Weights                                 58501.056183

 Total nr. of points:         48
 Nr. of blocks:                1
 Block length:                48
 Nr. of dummy points:          0


 Test of Precision of the Numerical Integration Grid
 ===================================================

 Integral of the Total Core Density:                   0.00000000000000



 =====
 S C F
 =====
  

 CYCLE    1
 orbitals (Q,E):
 ---------------
 S :1...2            ( 2.00   -17.2281)  ( 2.00    -3.3737)   
 P :1...1            ( 2.00    -3.0741)   

 CYCLE    2
 d-Pmat  mean:  0.27E-15
 imax=      2: -0.89E-15
 orbitals (Q,E):
 ---------------
 S :1...2            ( 2.00    -9.7601)  ( 2.00    -0.3637)   
 P :1...1            ( 2.00    -0.0244)   

 SCF CONVERGED

 CYCLE    3
1
 ***************************************************************************************************



                                                *******************
                                                *  R E S U L T S  *
                                                *******************
  
 *** Setting up for NEW gradients in focky
 *** Using FIT density in focky

 Orbital Energies, per Irrep and Spin:
 ======================================
                        Occup              E (au)              E (eV)       Diff (eV) with prev. cycle
                        -----      --------------------        ------       --------------------------
 S
               1        2.000     -0.97601381783323E+01      -265.587               3.96E-12
               2        2.000     -0.36369143932923E+00        -9.897               3.60E-12
 P
               1        2.000     -0.24432272454957E-01        -0.665               3.58E-12


 Partially Occupied:
               1 P                -0.24432272454957E-01
  
 HOMO :        2 S                -0.36369143932923E+00
  


 Orbital Energies, all Irreps
 ========================================

 Irrep        no.  (spin)   Occup              E (au)                E (eV)
 ---------------------------------------------------------------------------
 S             1             2.00       -0.97601381783323E+01      -265.5869
 S             2             2.00       -0.36369143932923E+00        -9.8965
 P             1             2.00       -0.24432272454957E-01        -0.6648


 Orbital Energies of the Core Orbitals:
 ======================================
 (Note that the atoms are grouped by atomtype, see the labels, and may hence NOT be in input order)

 AtomType  Orbital  Atom                   E (au)                        E (eV)
 --------  -------  ----           --------------------        ----------------



 =======================================
 M U L L I K E N   P O P U L A T I O N S
 =======================================
  
 The survey below gives for each atom:
 a) the total charge (Z minus electrons)
 b) the net spin polarization (nr of electrons spin-A minus spin-B)
 c) for each spin the atomic electron valence density (integrated) per L-value.

 Atom              Charge    Spin density          S         P         D         F
 ----              ------    ------------       ------    ------    ------    ------
 1 C               0.0000                       4.0000    2.0000    0.0000    0.0000

 Populations of individual BAS functions
 ----------------------------------------
 1 C            2.0000  2.0000  0.6667  0.6667  0.6667

 Gross Charges per Atom (Z minus electrons)
 ==========================================
             0.0000
 Net Total:  0.00000000


 Atom-Atom Population Matrix (off-diagonal elements not doubled)
 ===============================================================

     1 :     6.0000



 =============
 Dipole Moment  ***  (Debye)  ***
 =============
  
 Vector   :         0.00000000      0.00000000      0.00000000
 Magnitude:         0.00000000

 This molecular dipole moment is calculated with analytic integration



 =========================================
 Quadrupole Moment (Buckingham convention)  ***  (a.u.)  ***
 =========================================
  
      quad-xx        quad-xy        quad-xz        quad-yy        quad-yz        quad-zz
      0.00000000     0.00000000     0.00000000     0.00000000     0.00000000     0.00000000

 This molecular quadrupole moment is calculated with analytic integration



 ===============================================================================
 Electrostatic potential at the Nuclei due to valence electrons and other nuclei
 ===============================================================================
  
         Atom                  Potential
         ----                  ---------
     1)   C                  14.98166635
 
 
 ========================
 No memory problems found
 ========================
 
 Maximum number of active allocate calls:          73
 
 *******************************************************************************

                             A D F   E X I T
 NORMAL TERMINATION



 =================
 Timing Statistics
 =================
  
 Total Used :                     CPU=        0.28      System=        0.29     Elapsed=        0.57

 Calls  Section                     ( Mean, Percentage )
 ---------------------------------------------------------------------------------------------------
     3  ><      ................      0.00    1.06             0.00    0.33             0.00    0.78
     1  INIT    ................      0.01    3.17             0.00    0.33             0.01    1.67
     1  GEOMET  ................      0.05   16.55             0.28   96.68             0.33   57.73
     1  INPUTA  ................      0.01    2.82             0.00    0.00             0.01    1.31
     1  MAINSY  ................      0.01    4.23             0.00    0.33             0.01    2.28
     1  SYMFIT  ................      0.00    0.70             0.00    0.00             0.00    0.24
     1  CORORT  ................      0.00    0.00             0.00    0.00             0.00    0.15
     1  SYMORB  ................      0.00    1.76             0.00    0.00             0.00    0.76
     1  FITINT  ................      0.01    3.17             0.00    0.66             0.01    1.81
     1  CLSMAT  ................      0.00    0.35             0.00    0.00             0.00    0.21
     1  ORTHON  ................      0.00    1.41             0.00    0.00             0.00    0.71
     1  CRTP12  ................      0.01    2.11             0.00    0.00             0.01    1.01
     1  ETALOW  ................      0.00    1.06             0.00    0.00             0.00    0.51
     1  GENPT   ................      0.03    9.86             0.00    0.66             0.03    5.18
     1  PTCOR   ................      0.01    2.11             0.00    0.00             0.01    1.01
     1  PTBAS   ................      0.00    1.06             0.00    0.00             0.00    0.55
     3  FOCKY   ................      0.03   29.58             0.00    0.33             0.03   14.76
     3  FOCKTR  ................      0.00    1.76             0.00    0.00             0.00    0.87
     3  FOCKNM  ................      0.00    0.00             0.00    0.00             0.00    0.03
     3  SDIIS   ................      0.00    1.41             0.00    0.00             0.00    0.71
     3  EMERGE  ................      0.01    7.04             0.00    0.33             0.01    3.21
     1  COREPS  ................      0.01    3.87             0.00    0.00             0.01    1.91
     1  POPAN   ................      0.00    1.76             0.00    0.00             0.01    0.91
     1  DEBYE   ................      0.00    0.70             0.00    0.00             0.00    0.32
     1  QMPOT   ................      0.00    1.06             0.00    0.00             0.00    0.41
     1  EXIT PROCEDURE .........      0.00    1.41             0.00    0.33             0.01    0.95


 Currently Open Files (EXIT00)
 ====================

 Unit    Access Format  Status   Type       Ident (file)
 -------------------------------------------------------
   3      SEQ    FORM   TRANSP  NORMAL      LOGFILE
                                          ( logfile )


 Buffered I/O statistics
 =======================
 Memory available:                    536870912
 Number of records fitting in memory:    129055
 Input :   3.5% of                          856  *4k bytes
 Output:  13.2% of                          797  *4k bytes
 Records from serial files evicted:           0
                    others evicted:           0
 Hash table lookups:       4445 with          0 conflicts (  0.00%)

 ***************************************************************************************************
 (LOGFILE)
 <Oct29-2007> <00:51:51>  ADF 2006.01  RunTime: Oct29-2007 00:51:51
 <Oct29-2007> <00:51:51>  Hydrogen (SZ)
 <Oct29-2007> <00:51:51>  RunType   : CREATE
 <Oct29-2007> <00:51:51>  Net Charge: 0 (Nuclei minus Electrons)
 <Oct29-2007> <00:51:51>  Symmetry  : ATOM
 <Oct29-2007> <00:51:51>  >>>> CORORT
 <Oct29-2007> <00:51:51>  >>>> FITINT
 <Oct29-2007> <00:51:51>  >>>> CLSMAT
 <Oct29-2007> <00:51:51>  >>>> ORTHON
 <Oct29-2007> <00:51:51>  >>>> CRTP12
 <Oct29-2007> <00:51:51>  >>>> GENPT
 <Oct29-2007> <00:51:51>  Acc.Num.Int.=  10.000
 <Oct29-2007> <00:51:51>  Block Length=  34
 <Oct29-2007> <00:51:51>  >>>> PTCOR
 <Oct29-2007> <00:51:51>  >>>> PTBAS
 <Oct29-2007> <00:51:51>  >>>> CYCLE
 <Oct29-2007> <00:51:51>    1
 <Oct29-2007> <00:51:51>    2  ErrMat   0.00000000  MaxEl  0.00000000
 <Oct29-2007> <00:51:51>  SCF converged
 <Oct29-2007> <00:51:51>    3  ErrMat   0.00000000  MaxEl  0.00000000
 <Oct29-2007> <00:51:51>   Solutions with partially occupied orbitals may not be
 <Oct29-2007> <00:51:51>   lowest in energy. You might consider lowering the
 <Oct29-2007> <00:51:51>   symmetry in the input and explicitly specifying integer
 <Oct29-2007> <00:51:51>   occupations. In that case always check that you obtain
 <Oct29-2007> <00:51:51>   an aufbau solution.
 <Oct29-2007> <00:51:51>  >>>> COREPS
 <Oct29-2007> <00:51:51>  >>>> POPAN
 <Oct29-2007> <00:51:51>  >>>> DEBYE
 <Oct29-2007> <00:51:51>  NORMAL TERMINATION
 <Oct29-2007> <00:51:51>  END
 <Oct29-2007> <00:51:52>  ADF 2006.01  RunTime: Oct29-2007 00:51:52
 <Oct29-2007> <00:51:52>  Carbon (SZ)
 <Oct29-2007> <00:51:52>  RunType   : CREATE
 <Oct29-2007> <00:51:52>  Net Charge: 0 (Nuclei minus Electrons)
 <Oct29-2007> <00:51:52>  Symmetry  : ATOM
 <Oct29-2007> <00:51:52>  >>>> CORORT
 <Oct29-2007> <00:51:52>  >>>> FITINT
 <Oct29-2007> <00:51:52>  >>>> CLSMAT
 <Oct29-2007> <00:51:52>  >>>> ORTHON
 <Oct29-2007> <00:51:52>  >>>> CRTP12
 <Oct29-2007> <00:51:52>  >>>> GENPT
 <Oct29-2007> <00:51:52>  Acc.Num.Int.=  10.000
 <Oct29-2007> <00:51:52>  Block Length=  48
 <Oct29-2007> <00:51:52>  >>>> PTCOR
 <Oct29-2007> <00:51:52>  >>>> PTBAS
 <Oct29-2007> <00:51:52>  >>>> CYCLE
 <Oct29-2007> <00:51:52>    1
 <Oct29-2007> <00:51:52>    2  ErrMat   0.00000000  MaxEl  0.00000000
 <Oct29-2007> <00:51:52>  SCF converged
 <Oct29-2007> <00:51:52>    3  ErrMat   0.00000000  MaxEl  0.00000000
 <Oct29-2007> <00:51:52>   Solutions with partially occupied orbitals may not be
 <Oct29-2007> <00:51:52>   lowest in energy. You might consider lowering the
 <Oct29-2007> <00:51:52>   symmetry in the input and explicitly specifying integer
 <Oct29-2007> <00:51:52>   occupations. In that case always check that you obtain
 <Oct29-2007> <00:51:52>   an aufbau solution.
 <Oct29-2007> <00:51:52>  >>>> COREPS
 <Oct29-2007> <00:51:52>  >>>> POPAN
 <Oct29-2007> <00:51:52>  >>>> DEBYE
 <Oct29-2007> <00:51:52>  NORMAL TERMINATION
 <Oct29-2007> <00:51:52>  END
(INPUT FILE)
title 1,4-divinyl-benzene, SZ, BLYP

charge 0 0
atoms
 C     0.000000     0.000000     0.000000
 C     0.000000     0.000000     1.391558
 C     1.199912     0.000000     2.091623
 C     2.381427     0.000000     1.405722
 C     2.381427     0.000000     0.014165
 H    -0.949187     0.000000     1.937349
 H     1.193861     0.000000     3.187592
 H     3.330614     0.000000    -0.531626
 C     3.669632     0.000000     2.146185
 C     4.871380     0.000000     1.546808
 H     4.930305     0.000000     0.444834
 H     3.585803     0.000000     3.241279
 H     5.787099     0.000000     2.100305
 C    -1.288205     0.000000    -0.740463
 H    -1.204377     0.000000    -1.835557
 C    -2.489953     0.000000    -0.141086
 H    -2.548878     0.000000     0.960888
 H    -3.405672     0.000000    -0.694583
 C     1.181515     0.000000    -0.685901
 H     1.187566     0.000000    -1.781870
end

XC
 GGA Blyp
end

EPrint
 SCF Err1
End

geometry
end

Fragments
H t21.H
C t21.C
End
end input

 *******************************************************************************
 *                                                                             *
 *  -------------------------------------                                      *
 *   Amsterdam Density Functional  (ADF)         2006.01   June 30, 2006       *
 *  -------------------------------------                                      *
 *                                               Build 200609192153            *
 *                                                                             *
 *                                                                             *
 *                              =================                              *
 *                              |               |                              *
 *                              |     A D F     |                              *
 *                              |               |                              *
 *                              =================                              *
 *                                                                             *
 *                                                                             *
 *   Online information and documentation:  http://www.scm.com                 *
 *   E-mail:  support@scm.com   info@scm.com                                   *
 *                                                                             *
 *   Scientific publications using ADF results must be properly referenced     *
 *   See the User Manuals (or the web site) for recommended citations          *
 *                                                                             *
 ******************************  hp_itan2_linux  *******************************
 
 ADF 2006.01  RunTime: Oct29-2007 00:51:52
 1,4-divinyl-benzene, SZ, BLYP



 ===========================
 A T T A C H E D   F I L E S
 ===========================
  



 ===============================
 M O D E L   P A R A M E T E R S
 ===============================
  
 DENSITY FUNCTIONAL POTENTIAL (scf)
    LDA:                               Exchange only                           == Not Default ==
    Gradient Corrections:              Becke88 LYP                             == Not Default ==

 SPIN  (restricted / unrestr.)
    Molecule:                          Restricted                               
    Fragments:                         Restricted                               

 OTHER ASPECTS
    Relativistic Corrections:          ---                                      
    Core Treatment:                    Frozen Orbital(s)                        

    Electric Field:                    ---                                      

    Hyperfine or Zeeman Interaction:   ---                                      


 Fragment File(s)
 ----------------
 C:
         file : t21.C
         jobid: ADF 2006.01  RunTime: Oct29-2007 00:51:52
         title: Carbon (SZ)
 H:
         file : t21.H
         jobid: ADF 2006.01  RunTime: Oct29-2007 00:51:51
         title: Hydrogen (SZ)



                                   *********************************************
                                   *  R U N   T Y P E : GEOMETRY OPTIMIZATION  *
                                   *********************************************
  



 ===============
 G E O M E T R Y  ***  Planar Molecule  ***
 ===============
  

 ATOMS
 =====                            X Y Z                    CHARGE
                                (Angstrom)             Nucl     +Core       At.Mass
                       --------------------------    ----------------       -------
    1  C              -1.1907    0.7029    0.0000      6.00      6.00       12.0000
    2  C              -1.1907   -0.6887    0.0000      6.00      6.00       12.0000
    3  C               0.0092   -1.3888    0.0000      6.00      6.00       12.0000
    4  C               1.1907   -0.7029    0.0000      6.00      6.00       12.0000
    5  C               1.1907    0.6887    0.0000      6.00      6.00       12.0000
    6  H              -2.1399   -1.2345    0.0000      1.00      1.00        1.0078
    7  H               0.0031   -2.4847    0.0000      1.00      1.00        1.0078
    8  H               2.1399    1.2345    0.0000      1.00      1.00        1.0078
    9  C               2.4789   -1.4433    0.0000      6.00      6.00       12.0000
   10  C               3.6807   -0.8439    0.0000      6.00      6.00       12.0000
   11  H               3.7396    0.2580    0.0000      1.00      1.00        1.0078
   12  H               2.3951   -2.5384    0.0000      1.00      1.00        1.0078
   13  H               4.5964   -1.3974    0.0000      1.00      1.00        1.0078
   14  C              -2.4789    1.4433    0.0000      6.00      6.00       12.0000
   15  H              -2.3951    2.5384    0.0000      1.00      1.00        1.0078
   16  C              -3.6807    0.8439    0.0000      6.00      6.00       12.0000
   17  H              -3.7396   -0.2580    0.0000      1.00      1.00        1.0078
   18  H              -4.5964    1.3974    0.0000      1.00      1.00        1.0078
   19  C              -0.0092    1.3888    0.0000      6.00      6.00       12.0000
   20  H              -0.0031    2.4847    0.0000      1.00      1.00        1.0078


 FRAGMENTS
 =========             Atoms in this Fragment     Cart. coord.s (Angstrom)
                       -------------------------------------------------------
    1  C                   1  C            -1.190713     0.702861     0.000000
    2  C                   2  C            -1.190713    -0.688696     0.000000
    3  C                   3  C             0.009199    -1.388762     0.000000
    4  C                   4  C             1.190713    -0.702861     0.000000
    5  C                   5  C             1.190713     0.688696     0.000000
    6  C                   9  C             2.478918    -1.443324     0.000000
    7  C                  10  C             3.680666    -0.843947     0.000000
    8  C                  14  C            -2.478918     1.443324     0.000000
    9  C                  16  C            -3.680666     0.843947     0.000000
   10  C                  19  C            -0.009199     1.388762     0.000000
   11  H                   6  H            -2.139900    -1.234487     0.000000
   12  H                   7  H             0.003148    -2.484731     0.000000
   13  H                   8  H             2.139900     1.234487     0.000000
   14  H                  11  H             3.739591     0.258027     0.000000
   15  H                  12  H             2.395090    -2.538418     0.000000
   16  H                  13  H             4.596385    -1.397444     0.000000
   17  H                  15  H            -2.395090     2.538418     0.000000
   18  H                  17  H            -3.739591    -0.258027     0.000000
   19  H                  18  H            -4.596385     1.397444     0.000000
   20  H                  20  H            -0.003148     2.484731     0.000000


 Interatomic Distance Matrix (Angstrom)
 --------------------------------------

   1)     0.000
   2)     1.392   0.000
   3)     2.411   1.389   0.000
   4)     2.765   2.381   1.366   0.000
   5)     2.381   2.751   2.390   1.392   0.000
   6)     2.157   1.095   2.155   3.373   3.846   0.000
   7)     3.404   2.157   1.096   2.141   3.388   2.481   0.000
   8)     3.373   3.846   3.380   2.157   1.095   4.941   4.289   0.000
   9)     4.251   3.746   2.470   1.486   2.491   4.624   2.686   2.699   0.000
  10)     5.111   4.874   3.712   2.494   2.924   5.834   4.027   2.587   1.343   0.000
  11)     4.950   5.020   4.078   2.724   2.585   6.066   4.635   1.874   2.118   1.104
          0.000
  12)     4.834   4.035   2.648   2.195   3.445   4.719   2.393   3.782   1.098   2.127
          3.103   0.000
  13)     6.156   5.830   4.587   3.476   3.994   6.738   4.720   3.600   2.118   1.070
          1.864   2.479   0.000
  14)     1.486   2.491   3.770   4.251   3.746   2.699   4.647   4.624   5.737   6.571
          6.330   6.294   7.624   0.000
  15)     2.195   3.445   4.605   4.834   4.035   3.782   5.566   4.719   6.294   6.954
          6.545   6.980   8.023   1.098   0.000
  16)     2.494   2.924   4.313   5.111   4.874   2.587   4.965   5.834   6.571   7.552
          7.443   6.954   8.575   1.343   2.127   0.000
  17)     2.724   2.585   3.916   4.950   5.020   1.874   4.355   6.066   6.330   7.443
          7.497   6.545   8.413   2.118   3.103   1.104   0.000
  18)     3.476   3.994   5.383   6.156   5.830   3.600   6.019   6.738   7.624   8.575
          8.413   8.023   9.608   2.118   2.479   1.070   1.864   0.000
  19)     1.366   2.390   2.778   2.411   1.389   3.380   3.874   2.155   3.770   4.313
          3.916   4.605   5.383   2.470   2.648   3.712   4.078   4.587   0.000
  20)     2.141   3.388   3.874   3.404   2.157   4.289   4.969   2.481   4.647   4.965
          4.355   5.566   6.019   2.686   2.393   4.027   4.635   4.720   1.096   0.000

 Min. Distance =    1.0700
 Max. Distance =    9.6082



 =====================================
 S Y M M E T R Y ,   E L E C T R O N S
 =====================================
  
 Symmetry: C(2H)

 Irreducible Representations, including subspecies
 -------------------------------------------------
 A.g
 B.g
 A.u
 B.u


 Configuration of Valence Electrons
 ==================================
 ( determined in the SCF procedure )

 Total:   70

 Net Charge: 0 (Nuclei minus Electrons)

 Aufbau principle for MO occupations will be applied through SCF cycle no.      30
 Thereafter, the program will assign electrons to MOs that are spatially
 similar to the occupied MOs in a "reference" cycle ("KeepOrbitals").
 The reference cycle is always the PREVIOUS cycle: it will evolve with
 the SCF procedure.
1
 ***************************************************************************************************



                                      ****************************************
                                      *  B U I L D : (Fragments, Functions)  *
                                      ****************************************
  



 =======
 S F O s  ***  (Symmetrized Fragment Orbitals)  ***
 =======
  
 SFOs are linear combinations of (valence) Fragment Orbitals (FOs), such that the SFOs transform as the
 irreducible representations of the (molecular) symmetry group. Each SFO is therefore characterized by
 an irrep of the molecule and by a few (or only one) generating FOs.
 The SFOs constitute a symmetry-adapted basis for the Fock matrix. The MO eigenvector coefficients in
 this basis provide a direct interpretation of the MOs in terms of Frontier Orbital Theory.

 The SFOs are combined with auxiliary Core Functions (CFs) to ensure orthogonalization on the (frozen)
 Core Orbitals (COs). The Core-orthogonalized SFOs (CSFOs) constitute the true Fock basis.

 The FOs, and hence also the (C)SFOs are combinations of the elementary basis functions (BAS). The basis
 functions that participate in the description of the SFOs depend on the irrep. The indices of the
 involved functions are printed below for each irrep.
 (The complete list of primitive basis functions is printed in another section)


 Total nr. of (C)SFOs (summation over all irreps) :    60

 NOTE: a (C)SFO that is defined as a combination of more than one FO is usually NOT normalized.



                                       === A.g ===
 Nr. of SFOs :   25
 Cartesian basis functions that participate in this irrep (total number =    50) :
      1    16     2    17     3     4    18    19     6    21
      7    22     8     9    23    24    11    46    12    47
     13    14    48    49    26    36    27    37    28    29
     38    39    31    41    32    42    33    34    43    44
     51    53    52    60    54    58    55    57    56    59

    SFO  (index         Fragment          Generating    Expansion in Fragment Orbitals
  indx  incl.CFs)   Occup   Orb.Energy   FragmentType  Coeff.   Orbital     on Fragment
 --------------------------------------------------------------------------------------
     1       1      2.000      -9.760 au  C             0.71      1 S               1
                        (    -265.587 eV)               0.71      1 S               4
     2       2      2.000      -0.364 au  C             0.71      2 S               1
                        (      -9.897 eV)               0.71      2 S               4
     3       3      0.667      -0.024 au  C             0.71      1 P:x             1
                        (      -0.665 eV)              -0.71      1 P:x             4
     4       4      0.667      -0.024 au  C             0.71      1 P:y             1
                        (      -0.665 eV)              -0.71      1 P:y             4
     5       5      2.000      -9.760 au  C             0.71      1 S               2
                        (    -265.587 eV)               0.71      1 S               5
     6       6      2.000      -0.364 au  C             0.71      2 S               2
                        (      -9.897 eV)               0.71      2 S               5
     7       7      0.667      -0.024 au  C             0.71      1 P:x             2
                        (      -0.665 eV)              -0.71      1 P:x             5
     8       8      0.667      -0.024 au  C             0.71      1 P:y             2
                        (      -0.665 eV)              -0.71      1 P:y             5
     9       9      2.000      -9.760 au  C             0.71      1 S               3
                        (    -265.587 eV)               0.71      1 S              10
    10      10      2.000      -0.364 au  C             0.71      2 S               3
                        (      -9.897 eV)               0.71      2 S              10
    11      11      0.667      -0.024 au  C             0.71      1 P:x             3
                        (      -0.665 eV)              -0.71      1 P:x            10
    12      12      0.667      -0.024 au  C             0.71      1 P:y             3
                        (      -0.665 eV)              -0.71      1 P:y            10
    13      13      2.000      -9.760 au  C             0.71      1 S               6
                        (    -265.587 eV)               0.71      1 S               8
    14      14      2.000      -0.364 au  C             0.71      2 S               6
                        (      -9.897 eV)               0.71      2 S               8
    15      15      0.667      -0.024 au  C             0.71      1 P:x             6
                        (      -0.665 eV)              -0.71      1 P:x             8
    16      16      0.667      -0.024 au  C             0.71      1 P:y             6
                        (      -0.665 eV)              -0.71      1 P:y             8
    17      17      2.000      -9.760 au  C             0.71      1 S               7
                        (    -265.587 eV)               0.71      1 S               9
    18      18      2.000      -0.364 au  C             0.71      2 S               7
                        (      -9.897 eV)               0.71      2 S               9
    19      19      0.667      -0.024 au  C             0.71      1 P:x             7
                        (      -0.665 eV)              -0.71      1 P:x             9
    20      20      0.667      -0.024 au  C             0.71      1 P:y             7
                        (      -0.665 eV)              -0.71      1 P:y             9
    21      21      1.000      -0.122 au  H             0.71      1 S              11
                        (      -3.310 eV)               0.71      1 S              13
    22      22      1.000      -0.122 au  H             0.71      1 S              12
                        (      -3.310 eV)               0.71      1 S              20
    23      23      1.000      -0.122 au  H             0.71      1 S              14
                        (      -3.310 eV)               0.71      1 S              18
    24      24      1.000      -0.122 au  H             0.71      1 S              15
                        (      -3.310 eV)               0.71      1 S              17
    25      25      1.000      -0.122 au  H             0.71      1 S              16
                        (      -3.310 eV)               0.71      1 S              19



                                       === B.g ===
 Nr. of SFOs :    5
 Cartesian basis functions that participate in this irrep (total number =    10) :
      5    20    10    25    15    50    30    40    35    45

    SFO  (index         Fragment          Generating    Expansion in Fragment Orbitals
  indx  incl.CFs)   Occup   Orb.Energy   FragmentType  Coeff.   Orbital     on Fragment
 --------------------------------------------------------------------------------------
     1       1      0.667      -0.024 au  C             0.71      1 P:z             1
                        (      -0.665 eV)              -0.71      1 P:z             4
     2       2      0.667      -0.024 au  C             0.71      1 P:z             2
                        (      -0.665 eV)              -0.71      1 P:z             5
     3       3      0.667      -0.024 au  C             0.71      1 P:z             3
                        (      -0.665 eV)              -0.71      1 P:z            10
     4       4      0.667      -0.024 au  C             0.71      1 P:z             6
                        (      -0.665 eV)              -0.71      1 P:z             8
     5       5      0.667      -0.024 au  C             0.71      1 P:z             7
                        (      -0.665 eV)              -0.71      1 P:z             9



                                       === A.u ===
 Nr. of SFOs :    5
 Cartesian basis functions that participate in this irrep (total number =    10) :
      5    20    10    25    15    50    30    40    35    45

    SFO  (index         Fragment          Generating    Expansion in Fragment Orbitals
  indx  incl.CFs)   Occup   Orb.Energy   FragmentType  Coeff.   Orbital     on Fragment
 --------------------------------------------------------------------------------------
     1       1      0.667      -0.024 au  C             0.71      1 P:z             1
                        (      -0.665 eV)               0.71      1 P:z             4
     2       2      0.667      -0.024 au  C             0.71      1 P:z             2
                        (      -0.665 eV)               0.71      1 P:z             5
     3       3      0.667      -0.024 au  C             0.71      1 P:z             3
                        (      -0.665 eV)               0.71      1 P:z            10
     4       4      0.667      -0.024 au  C             0.71      1 P:z             6
                        (      -0.665 eV)               0.71      1 P:z             8
     5       5      0.667      -0.024 au  C             0.71      1 P:z             7
                        (      -0.665 eV)               0.71      1 P:z             9



                                       === B.u ===
 Nr. of SFOs :   25
 Cartesian basis functions that participate in this irrep (total number =    50) :
      1    16     2    17     3     4    18    19     6    21
      7    22     8     9    23    24    11    46    12    47
     13    14    48    49    26    36    27    37    28    29
     38    39    31    41    32    42    33    34    43    44
     51    53    52    60    54    58    55    57    56    59

    SFO  (index         Fragment          Generating    Expansion in Fragment Orbitals
  indx  incl.CFs)   Occup   Orb.Energy   FragmentType  Coeff.   Orbital     on Fragment
 --------------------------------------------------------------------------------------
     1       1      2.000      -9.760 au  C             0.71      1 S               1
                        (    -265.587 eV)              -0.71      1 S               4
     2       2      2.000      -0.364 au  C             0.71      2 S               1
                        (      -9.897 eV)              -0.71      2 S               4
     3       3      0.667      -0.024 au  C             0.71      1 P:x             1
                        (      -0.665 eV)               0.71      1 P:x             4
     4       4      0.667      -0.024 au  C             0.71      1 P:y             1
                        (      -0.665 eV)               0.71      1 P:y             4
     5       5      2.000      -9.760 au  C             0.71      1 S               2
                        (    -265.587 eV)              -0.71      1 S               5
     6       6      2.000      -0.364 au  C             0.71      2 S               2
                        (      -9.897 eV)              -0.71      2 S               5
     7       7      0.667      -0.024 au  C             0.71      1 P:x             2
                        (      -0.665 eV)               0.71      1 P:x             5
     8       8      0.667      -0.024 au  C             0.71      1 P:y             2
                        (      -0.665 eV)               0.71      1 P:y             5
     9       9      2.000      -9.760 au  C             0.71      1 S               3
                        (    -265.587 eV)              -0.71      1 S              10
    10      10      2.000      -0.364 au  C             0.71      2 S               3
                        (      -9.897 eV)              -0.71      2 S              10
    11      11      0.667      -0.024 au  C             0.71      1 P:x             3
                        (      -0.665 eV)               0.71      1 P:x            10
    12      12      0.667      -0.024 au  C             0.71      1 P:y             3
                        (      -0.665 eV)               0.71      1 P:y            10
    13      13      2.000      -9.760 au  C             0.71      1 S               6
                        (    -265.587 eV)              -0.71      1 S               8
    14      14      2.000      -0.364 au  C             0.71      2 S               6
                        (      -9.897 eV)              -0.71      2 S               8
    15      15      0.667      -0.024 au  C             0.71      1 P:x             6
                        (      -0.665 eV)               0.71      1 P:x             8
    16      16      0.667      -0.024 au  C             0.71      1 P:y             6
                        (      -0.665 eV)               0.71      1 P:y             8
    17      17      2.000      -9.760 au  C             0.71      1 S               7
                        (    -265.587 eV)              -0.71      1 S               9
    18      18      2.000      -0.364 au  C             0.71      2 S               7
                        (      -9.897 eV)              -0.71      2 S               9
    19      19      0.667      -0.024 au  C             0.71      1 P:x             7
                        (      -0.665 eV)               0.71      1 P:x             9
    20      20      0.667      -0.024 au  C             0.71      1 P:y             7
                        (      -0.665 eV)               0.71      1 P:y             9
    21      21      1.000      -0.122 au  H             0.71      1 S              11
                        (      -3.310 eV)              -0.71      1 S              13
    22      22      1.000      -0.122 au  H             0.71      1 S              12
                        (      -3.310 eV)              -0.71      1 S              20
    23      23      1.000      -0.122 au  H             0.71      1 S              14
                        (      -3.310 eV)              -0.71      1 S              18
    24      24      1.000      -0.122 au  H             0.71      1 S              15
                        (      -3.310 eV)              -0.71      1 S              17
    25      25      1.000      -0.122 au  H             0.71      1 S              16
                        (      -3.310 eV)              -0.71      1 S              19



 ================================
 (Slater-type)  F U N C T I O N S  ***  (Basis and Fit)  ***
 ================================
  

 Atom Type    1  (C)
 ==============

 Valence Basis Sets:   3
 -----------------------
   1 S    5.670000
   2 S    1.720000
   2 P    1.720000

 Charge Fitting Sets (for the computation of the Coulomb Potential):  22
 -----------------------------------------------------------------------
   1 S   11.340000
   2 S   13.540000
   2 S    9.660000
   2 S    6.890000
   2 S    4.920000
   3 S    5.130000
   3 S    3.860000
   3 S    2.900000
   3 S    2.180000
   3 S    1.640000
   2 P    7.390000
   2 P    4.710000
   3 P    4.410000
   3 P    3.020000
   3 P    2.060000
   3 D    3.440000
   3 D    2.690000
   3 D    2.100000
   3 D    1.640000
   4 F    5.400000
   4 F    3.550000
   5 G    4.500000

 Atom Type    2  (H)
 ==============

 Valence Basis Sets:   1
 -----------------------
   1 S    1.240000

 Charge Fitting Sets (for the computation of the Coulomb Potential):  11
 -----------------------------------------------------------------------
   1 S    3.160000
   1 S    2.090000
   1 S    1.380000
   2 S    1.500000
   2 P    4.000000
   2 P    2.650000
   2 P    1.750000
   3 D    4.000000
   3 D    2.500000
   4 F    3.000000
   5 G    4.000000


 BAS: List of all Elementary Cartesian Basis Functions
 =====================================================

 The numbering in the list below (to the right of the function characteristics) is referred
 to in print-outs of MO eigenvectors and Mulliken populations in the BAS representation
 (as contrasted to the SFO representation).

 Notes:
 1. The functions are characterized by a polynomial prefactor (powers of x,y,z and r) and
    an exponential decay factor alpha.
 2. Since the basis sets are specific for an atom TYPE, the individual functions occur on
    all atoms of that type.
 3. The word 'Core' in the left margin signals that it is a Core Function (CF) : not a
    degree of freedom in the valence set, but only used to ensure orthogonalization of
    the other valence basis functions on the frozen Core Orbitals.


 (power of) X  Y  Z  R     Alpha  on Atom
            ==========     =====     ==========

 C                                    1    2    3    4    5    6    7    8    9   10
                                  ---------------------------------------------------------------------------
            0  0  0  0     5.670      1    6   11   16   21   26   31   36   41   46
            0  0  0  1     1.720      2    7   12   17   22   27   32   37   42   47
            1  0  0  0     1.720      3    8   13   18   23   28   33   38   43   48
            0  1  0  0     1.720      4    9   14   19   24   29   34   39   44   49
            0  0  1  0     1.720      5   10   15   20   25   30   35   40   45   50

 H                                   11   12   13   14   15   16   17   18   19   20
                                  ---------------------------------------------------------------------------
            0  0  0  0     1.240     51   52   53   54   55   56   57   58   59   60
1
 ***************************************************************************************************



                                              ***********************
                                              *  T E C H N I C A L  *
                                              ***********************
  



 =============================================================
 P A R A L L E L I Z A T I O N  and  V E C T O R I Z A T I O N
 =============================================================
  
 Nr of parallel processes:                                1
 Internal max. (compile-time) nr of processes:          128
 Maximum vector length in NumInt loops:                 128



 ===============
 I O  vs.  C P U  ***  (store numerical data on disk or recalculate)  ***
 ===============
  
 Basis functions:   recalculate when needed
 Fit functions:     recalculate when needed

 IO buffersize (Mb):                                    512.000000



 ===============================
 G E O M E T R Y   U P D A T E S
 ===============================
  
 Optimization coordinates:                       Cartesian
 Hessian update method:                          BFGS (Broyden-Fletcher-Goldfarb-Shanno)

 Iterative Geometry Improvements:
    Max. nr. of iterations:                         30
    Convergence criteria:
         Change in energy (hartree):                 0.0010000000
         Gradients (au/Angstrom):                    0.0100000000
         Cart/bondlength changes (Angstrom):         0.0100000000
         Angular changes (degree):                   0.5000000000
    Max. steps to take:
         Cart/bondlengths (Angstrom):                0.1500000000
         Angles (degree):                           10.0000000000



 =====================
 S C F   U P D A T E S
 =====================
  
 Max. nr. of cycles:                                50
 Convergence criterion:                              0.0000010000
   secondary criterion:                              0.0010000000

 Mix parameter (when DIIS does not apply):           0.2000000000


 DIIS (Direct Inversion in Iteration Space)
    Replace damping when SCF Error is below:         0.5000000000
    Apply anyway after SCF cycle:
                                                     5
    (Max.) nr. of expansion vectors:                10

    Upperbound on expansion coefficients:            5.0000000000
    (when exceeded, IterationSpace is re-built)
    2nd Upperbound on coefficients:                 25.0000000000
    (when exceeded, simple damping will be used)



 =================
 P R E C I S I O N  ***  (General: NumInt, NeglectFunctionTails, ...)  ***
 =================
  

 NumInt:           Target precision:                 4.0000000000
 -------           Initial precision:                4.0000000000
                   Min. precision (optimization):    3.0000000000

 Neglect Functions:          Basis functions:        0.1000000000E-05
 ------------------          Fit functions:          0.1000000000E-05



 ===========================
 L I N E A R   S C A L I N G
 ===========================
  

 Cut-off radii density fit:                        0.1000000000E-07
 Overlap cut-off criterion AO matrix elements:     0.1000000000E-05
 Cut-offs for Coulomb potential and fitted density:0.1000000000E-07
 Cut-off criterion for Coulomb multipole terms:    0.1000000000E-07
1
 ***************************************************************************************************



                                            ***************************
                                            *  C O M P U T A T I O N  *
                                            ***************************
  

 Number of elements of the density matrix on this node (used, total):       980      1830



 ====================================================
 Numerical Integration : Voronoi Polyhedra (Te Velde)  ***  (parameters, tests)  ***
 ====================================================
  
 General Accuracy Parameter :                          4.00

 Symmetry used in the points section:  C(2H) 


 Summary of the Symmetry Unique Points:
 --------------------------------------
    Nr. of used Symmetry Operators                     4

    Points in the Atomic Spheres                    1900
    Points in the Atomic Polyhedra                 13079
    Points in the Outer Region                      2988
    ----------------------------------------------------
    Total                                          17967

    Sum of Weights                                 71114.031031

 Total nr. of points:      17967
 Nr. of blocks:              141
 Block length:               128
 Nr. of dummy points:         81


 Test of Precision of the Numerical Integration Grid
 ===================================================

 Integral of the Total Core Density:                   0.00000000000000



 =====
 S C F
 =====
  

 CYCLE    1
 orbitals (Q,E):
 ---------------
 A.g :6...25         ( 2.00    -0.7434)  ( 2.00    -0.6526)  ( 2.00    -0.5284)  ( 2.00    -0.5006)   
                     ( 2.00    -0.4557)  ( 2.00    -0.4094)  ( 2.00    -0.3502)  ( 2.00    -0.3019)   
                     ( 2.00    -0.2500)  ( 2.00    -0.2403)  ( 0.00     0.2871)  ( 0.00     0.3217)   
                     ( 0.00     0.3620)  ( 0.00     0.4081)  ( 0.00     0.4435)  ( 0.00     0.4874)   
                     ( 0.00     0.5260)  ( 0.00     0.5928)  ( 0.00     0.6077)  ( 0.00     0.7433)   
 B.g :1...5          ( 2.00    -0.2322)  ( 2.00    -0.1697)  ( 2.00    -0.1332)  ( 0.00     0.0659)   
                     ( 0.00     0.2346)   
 A.u :1...5          ( 2.00    -0.2919)  ( 2.00    -0.1836)  ( 0.00     0.0096)  ( 0.00     0.0541)   
                     ( 0.00     0.1420)   
 B.u :6...25         ( 2.00    -0.6865)  ( 2.00    -0.6348)  ( 2.00    -0.6020)  ( 2.00    -0.4732)   
                     ( 2.00    -0.3933)  ( 2.00    -0.3586)  ( 2.00    -0.3500)  ( 2.00    -0.3262)   
                     ( 2.00    -0.3061)  ( 2.00    -0.2655)  ( 0.00     0.2863)  ( 0.00     0.3347)   
                     ( 0.00     0.3610)  ( 0.00     0.3731)  ( 0.00     0.4230)  ( 0.00     0.5091)   
                     ( 0.00     0.5470)  ( 0.00     0.5702)  ( 0.00     0.6604)  ( 0.00     0.7634)   

 CYCLE    2
    SCF test: [PF] Norm=   0.1262758757  Max.El.=  -0.0348267344  (ij=   4,   6, Symm.  3, Spin 1)
 d-Pmat  mean:  0.52E-02
 imax=     45: -0.34E-01
 orbitals (Q,E):
 ---------------
 A.g :6...16         ( 2.00    -0.7459)  ( 2.00    -0.6502)  ( 2.00    -0.5296)  ( 2.00    -0.5020)   
                     ( 2.00    -0.4563)  ( 2.00    -0.4091)  ( 2.00    -0.3478)  ( 2.00    -0.3009)   
                     ( 2.00    -0.2519)  ( 2.00    -0.2425)  ( 0.00     0.2859)   
 B.g :1...4          ( 2.00    -0.2328)  ( 2.00    -0.1704)  ( 2.00    -0.1322)  ( 0.00     0.0676)   
 A.u :1...3          ( 2.00    -0.2935)  ( 2.00    -0.1809)  ( 0.00     0.0101)   
 B.u :6...16         ( 2.00    -0.6872)  ( 2.00    -0.6361)  ( 2.00    -0.6015)  ( 2.00    -0.4731)   
                     ( 2.00    -0.3927)  ( 2.00    -0.3599)  ( 2.00    -0.3505)  ( 2.00    -0.3273)   
                     ( 2.00    -0.3060)  ( 2.00    -0.2662)  ( 0.00     0.2865)   

 CYCLE    3
    SCF test: [PF] Norm=   0.0724458922  Max.El.=   0.0160749953  (ij=   1,   3, Symm.  1, Spin 1)
 d-Pmat  mean:  0.53E-02
 imax=     40: -0.23E-01
 orbitals (Q,E):
 ---------------
 A.g :6...16         ( 2.00    -0.7439)  ( 2.00    -0.6428)  ( 2.00    -0.5285)  ( 2.00    -0.5009)   
                     ( 2.00    -0.4552)  ( 2.00    -0.4056)  ( 2.00    -0.3441)  ( 2.00    -0.2993)   
                     ( 2.00    -0.2520)  ( 2.00    -0.2416)  ( 0.00     0.2867)   
 B.g :1...4          ( 2.00    -0.2268)  ( 2.00    -0.1659)  ( 2.00    -0.1278)  ( 0.00     0.0727)   
 A.u :1...3          ( 2.00    -0.2889)  ( 2.00    -0.1730)  ( 0.00     0.0129)   
 B.u :6...16         ( 2.00    -0.6830)  ( 2.00    -0.6337)  ( 2.00    -0.5980)  ( 2.00    -0.4719)   
                     ( 2.00    -0.3893)  ( 2.00    -0.3604)  ( 2.00    -0.3491)  ( 2.00    -0.3263)   
                     ( 2.00    -0.3021)  ( 2.00    -0.2655)  ( 0.00     0.2888)   

 CYCLE    4
    SCF test: [PF] Norm=   0.0557687627  Max.El.=  -0.0254166839  (ij=   4,   6, Symm.  3, Spin 1)
 d-Pmat  mean:  0.62E-02
 imax=     45: -0.35E-01
 orbitals (Q,E):
 ---------------
 A.g :6...16         ( 2.00    -0.7439)  ( 2.00    -0.6446)  ( 2.00    -0.5289)  ( 2.00    -0.5010)   
                     ( 2.00    -0.4555)  ( 2.00    -0.4068)  ( 2.00    -0.3445)  ( 2.00    -0.2995)   
                     ( 2.00    -0.2522)  ( 2.00    -0.2429)  ( 0.00     0.2857)   
 B.g :1...4          ( 2.00    -0.2279)  ( 2.00    -0.1671)  ( 2.00    -0.1273)  ( 0.00     0.0707)   
 A.u :1...3          ( 2.00    -0.2891)  ( 2.00    -0.1749)  ( 0.00     0.0134)   
 B.u :6...16         ( 2.00    -0.6841)  ( 2.00    -0.6347)  ( 2.00    -0.5978)  ( 2.00    -0.4728)   
                     ( 2.00    -0.3899)  ( 2.00    -0.3607)  ( 2.00    -0.3488)  ( 2.00    -0.3271)   
                     ( 2.00    -0.3034)  ( 2.00    -0.2658)  ( 0.00     0.2882)   

 CYCLE    5
    SCF test: [PF] Norm=   0.0237510499  Max.El.=   0.0050119254  (ij=   1,   4, Symm.  2, Spin 1)
 d-Pmat  mean:  0.22E-02
 imax=     20:  0.84E-02
 orbitals (Q,E):
 ---------------
 A.g :6...16         ( 2.00    -0.7448)  ( 2.00    -0.6443)  ( 2.00    -0.5292)  ( 2.00    -0.5014)   
                     ( 2.00    -0.4555)  ( 2.00    -0.4067)  ( 2.00    -0.3443)  ( 2.00    -0.2995)   
                     ( 2.00    -0.2526)  ( 2.00    -0.2431)  ( 0.00     0.2858)   
 B.g :1...4          ( 2.00    -0.2285)  ( 2.00    -0.1668)  ( 2.00    -0.1279)  ( 0.00     0.0712)   
 A.u :1...3          ( 2.00    -0.2899)  ( 2.00    -0.1744)  ( 0.00     0.0128)   
 B.u :6...16         ( 2.00    -0.6847)  ( 2.00    -0.6345)  ( 2.00    -0.5983)  ( 2.00    -0.4727)   
                     ( 2.00    -0.3901)  ( 2.00    -0.3607)  ( 2.00    -0.3494)  ( 2.00    -0.3269)   
                     ( 2.00    -0.3033)  ( 2.00    -0.2662)  ( 0.00     0.2882)   

 CYCLE    6
    SCF test: [PF] Norm=   0.0027066305  Max.El.=   0.0006913329  (ij=  20,  24, Symm.  4, Spin 1)
 d-Pmat  mean:  0.29E-03
 imax=     20: -0.69E-03
 orbitals (Q,E):
 ---------------
 A.g :6...16         ( 2.00    -0.7449)  ( 2.00    -0.6441)  ( 2.00    -0.5292)  ( 2.00    -0.5015)   
                     ( 2.00    -0.4556)  ( 2.00    -0.4066)  ( 2.00    -0.3441)  ( 2.00    -0.2994)   
                     ( 2.00    -0.2527)  ( 2.00    -0.2431)  ( 0.00     0.2858)   
 B.g :1...4          ( 2.00    -0.2283)  ( 2.00    -0.1670)  ( 2.00    -0.1277)  ( 0.00     0.0715)   
 A.u :1...3          ( 2.00    -0.2899)  ( 2.00    -0.1741)  ( 0.00     0.0129)   
 B.u :6...16         ( 2.00    -0.6845)  ( 2.00    -0.6347)  ( 2.00    -0.5982)  ( 2.00    -0.4725)   
                     ( 2.00    -0.3900)  ( 2.00    -0.3608)  ( 2.00    -0.3493)  ( 2.00    -0.3270)   
[...]
 <Oct29-2007> <00:51:51>  Block Length=  34
 <Oct29-2007> <00:51:51>  >>>> PTCOR
 <Oct29-2007> <00:51:51>  >>>> PTBAS
 <Oct29-2007> <00:51:51>  >>>> CYCLE
 <Oct29-2007> <00:51:51>    1
 <Oct29-2007> <00:51:51>    2  ErrMat   0.00000000  MaxEl  0.00000000
 <Oct29-2007> <00:51:51>  SCF converged
 <Oct29-2007> <00:51:51>    3  ErrMat   0.00000000  MaxEl  0.00000000
 <Oct29-2007> <00:51:51>   Solutions with partially occupied orbitals may not be
 <Oct29-2007> <00:51:51>   lowest in energy. You might consider lowering the
 <Oct29-2007> <00:51:51>   symmetry in the input and explicitly specifying integer
 <Oct29-2007> <00:51:51>   occupations. In that case always check that you obtain
 <Oct29-2007> <00:51:51>   an aufbau solution.
 <Oct29-2007> <00:51:51>  >>>> COREPS
 <Oct29-2007> <00:51:51>  >>>> POPAN
 <Oct29-2007> <00:51:51>  >>>> DEBYE
 <Oct29-2007> <00:51:51>  NORMAL TERMINATION
 <Oct29-2007> <00:51:51>  END
 <Oct29-2007> <00:51:52>  ADF 2006.01  RunTime: Oct29-2007 00:51:52
 <Oct29-2007> <00:51:52>  Carbon (SZ)
 <Oct29-2007> <00:51:52>  RunType   : CREATE
 <Oct29-2007> <00:51:52>  Net Charge: 0 (Nuclei minus Electrons)
 <Oct29-2007> <00:51:52>  Symmetry  : ATOM
 <Oct29-2007> <00:51:52>  >>>> CORORT
 <Oct29-2007> <00:51:52>  >>>> FITINT
 <Oct29-2007> <00:51:52>  >>>> CLSMAT
 <Oct29-2007> <00:51:52>  >>>> ORTHON
 <Oct29-2007> <00:51:52>  >>>> CRTP12
 <Oct29-2007> <00:51:52>  >>>> GENPT
 <Oct29-2007> <00:51:52>  Acc.Num.Int.=  10.000
 <Oct29-2007> <00:51:52>  Block Length=  48
 <Oct29-2007> <00:51:52>  >>>> PTCOR
 <Oct29-2007> <00:51:52>  >>>> PTBAS
 <Oct29-2007> <00:51:52>  >>>> CYCLE
 <Oct29-2007> <00:51:52>    1
 <Oct29-2007> <00:51:52>    2  ErrMat   0.00000000  MaxEl  0.00000000
 <Oct29-2007> <00:51:52>  SCF converged
 <Oct29-2007> <00:51:52>    3  ErrMat   0.00000000  MaxEl  0.00000000
 <Oct29-2007> <00:51:52>   Solutions with partially occupied orbitals may not be
 <Oct29-2007> <00:51:52>   lowest in energy. You might consider lowering the
 <Oct29-2007> <00:51:52>   symmetry in the input and explicitly specifying integer
 <Oct29-2007> <00:51:52>   occupations. In that case always check that you obtain
 <Oct29-2007> <00:51:52>   an aufbau solution.
 <Oct29-2007> <00:51:52>  >>>> COREPS
 <Oct29-2007> <00:51:52>  >>>> POPAN
 <Oct29-2007> <00:51:52>  >>>> DEBYE
 <Oct29-2007> <00:51:52>  NORMAL TERMINATION
 <Oct29-2007> <00:51:52>  END
 <Oct29-2007> <00:51:52>  ADF 2006.01  RunTime: Oct29-2007 00:51:52
 <Oct29-2007> <00:51:52>  1,4-divinyl-benzene, SZ, BLYP
 <Oct29-2007> <00:51:53>  RunType   : GEOMETRY OPTIMIZATION
 <Oct29-2007> <00:51:53>  Net Charge: 0 (Nuclei minus Electrons)
 <Oct29-2007> <00:51:53>  Symmetry  : C(2H)
 <Oct29-2007> <00:51:53>  >>>> FRAGM
  Coordinates in Geometry Cycle 1
    Atom         X           Y           Z   (Angstrom)
    1.C        -1.190713    0.702861    0.000000
    2.C        -1.190713   -0.688696    0.000000
    3.C         0.009199   -1.388762    0.000000
    4.C         1.190713   -0.702861    0.000000
    5.C         1.190713    0.688696    0.000000
    6.H        -2.139900   -1.234487    0.000000
    7.H         0.003148   -2.484731    0.000000
    8.H         2.139900    1.234487    0.000000
    9.C         2.478918   -1.443324    0.000000
   10.C         3.680666   -0.843947    0.000000
   11.H         3.739591    0.258027    0.000000
   12.H         2.395090   -2.538418    0.000000
   13.H         4.596385   -1.397444    0.000000
   14.C        -2.478918    1.443324    0.000000
   15.H        -2.395090    2.538418    0.000000
   16.C        -3.680666    0.843947    0.000000
   17.H        -3.739591   -0.258027    0.000000
   18.H        -4.596385    1.397444    0.000000
   19.C        -0.009199    1.388762    0.000000
   20.H        -0.003148    2.484731    0.000000
 <Oct29-2007> <00:51:53>  >>>> CORORT
 <Oct29-2007> <00:51:53>  >>>> FITINT
 <Oct29-2007> <00:51:55>  >>>> CLSMAT
 <Oct29-2007> <00:51:55>  >>>> ORTHON
 <Oct29-2007> <00:51:55>  >>>> CRTP12
 <Oct29-2007> <00:51:55>  >>>> GENPT
 <Oct29-2007> <00:51:55>  Acc.Num.Int.=   4.000
 <Oct29-2007> <00:51:56>  Block Length= 128
 <Oct29-2007> <00:51:58>  >>>> PTCOR
 <Oct29-2007> <00:51:58>  >>>> PTBAS
 <Oct29-2007> <00:51:58>  >>>> CYCLE
 <Oct29-2007> <00:51:58>    1
 <Oct29-2007> <00:52:00>    2  ErrMat   0.12627588  MaxEl -0.03482673
 <Oct29-2007> <00:52:01>    3  ErrMat   0.07244589  MaxEl  0.01607500
 <Oct29-2007> <00:52:03>    4  ErrMat   0.05576876  MaxEl -0.02541668
 <Oct29-2007> <00:52:04>    5  ErrMat   0.02375105  MaxEl  0.00501193
 <Oct29-2007> <00:52:06>    6  ErrMat   0.00270663  MaxEl  0.00069133
 <Oct29-2007> <00:52:06>  SCF converged
 <Oct29-2007> <00:52:07>    7  ErrMat   0.00035755  MaxEl -0.00010370
 <Oct29-2007> <00:52:07>  >>>> TOTEN
 <Oct29-2007> <00:52:12>  >>>> POPAN
 <Oct29-2007> <00:52:12>  >>>> DEBYE
 <Oct29-2007> <00:52:12>  >>>> AMETS
 <Oct29-2007> <00:52:12>  >>>> ENGRAD
 <Oct29-2007> <00:52:14>  E-test:  old,new=   0.00000,  -5.14171 hartree
 <Oct29-2007> <00:52:14>  max gradient:      0.10589644 au/angstrom,radian
 <Oct29-2007> <00:52:14>  max cart. step:    0.10157528 angstrom
  Coordinates in Geometry Cycle 2
    Atom         X           Y           Z   (Angstrom)
    1.C        -1.236765    0.715059    0.000000
    2.C        -1.213831   -0.708107    0.000000
    3.C         0.005287   -1.413250    0.000000
    4.C         1.236765   -0.715059    0.000000
    5.C         1.213831    0.708107    0.000000
    6.H        -2.162349   -1.263889    0.000000
    7.H        -0.006590   -2.515203    0.000000
    8.H         2.162349    1.263889    0.000000
    9.C         2.538895   -1.465549    0.000000
   10.C         3.755981   -0.872040    0.000000
   11.H         3.841167    0.223201    0.000000
   12.H         2.452229   -2.567882    0.000000
   13.H         4.697499   -1.441254    0.000000
   14.C        -2.538895    1.465549    0.000000
   15.H        -2.452229    2.567882    0.000000
   16.C        -3.755981    0.872040    0.000000
   17.H        -3.841167   -0.223201    0.000000
   18.H        -4.697499    1.441254    0.000000
   19.C        -0.005287    1.413250    0.000000
   20.H         0.006590    2.515203    0.000000
 <Oct29-2007> <00:52:14>  >>>> CORORT
 <Oct29-2007> <00:52:15>  >>>> FITINT
 <Oct29-2007> <00:52:16>  >>>> CLSMAT
 <Oct29-2007> <00:52:16>  >>>> ORTHON
 <Oct29-2007> <00:52:16>  >>>> CRTP12
 <Oct29-2007> <00:52:16>  >>>> GENPT
 <Oct29-2007> <00:52:16>  Acc.Num.Int.=   3.477
 <Oct29-2007> <00:52:18>  Block Length= 128
 <Oct29-2007> <00:52:18>  >>>> PTCOR
 <Oct29-2007> <00:52:19>  >>>> PTBAS
 <Oct29-2007> <00:52:19>  >>>> CYCLE
 <Oct29-2007> <00:52:20>    1
 <Oct29-2007> <00:52:21>    2  ErrMat   0.01853235  MaxEl  0.00481422
 <Oct29-2007> <00:52:22>    3  ErrMat   0.01069709  MaxEl  0.00366403
 <Oct29-2007> <00:52:23>    4  ErrMat   0.01077645  MaxEl  0.00446585
 <Oct29-2007> <00:52:24>    5  ErrMat   0.00311017  MaxEl -0.00085030
 <Oct29-2007> <00:52:25>    6  ErrMat   0.00055882  MaxEl -0.00015452
 <Oct29-2007> <00:52:25>  SCF converged
 <Oct29-2007> <00:52:26>    7  ErrMat   0.00011022  MaxEl -0.00002914
 <Oct29-2007> <00:52:27>  >>>> TOTEN
 <Oct29-2007> <00:52:30>  >>>> POPAN
 <Oct29-2007> <00:52:30>  >>>> DEBYE
 <Oct29-2007> <00:52:30>  >>>> AMETS
 <Oct29-2007> <00:52:30>  >>>> ENGRAD
 <Oct29-2007> <00:52:32>  E-test:  old,new=  -5.14171,  -5.15951 hartree
 <Oct29-2007> <00:52:32>  max gradient:      0.03219525 au/angstrom,radian
 <Oct29-2007> <00:52:32>  max cart. step:    0.07674969 angstrom
  Coordinates in Geometry Cycle 3
    Atom         X           Y           Z   (Angstrom)
    1.C        -1.259091    0.713155    0.000000
    2.C        -1.216872   -0.721060    0.000000
    3.C         0.012576   -1.419294    0.000000
    4.C         1.259091   -0.713155    0.000000
    5.C         1.216872    0.721060    0.000000
    6.H        -2.161340   -1.289533    0.000000
    7.H         0.008083   -2.523312    0.000000
    8.H         2.161340    1.289533    0.000000
    9.C         2.562635   -1.469293    0.000000
   10.C         3.794072   -0.895241    0.000000
   11.H         3.917916    0.200165    0.000000
   12.H         2.468732   -2.571027    0.000000
   13.H         4.720524   -1.487421    0.000000
   14.C        -2.562635    1.469293    0.000000
   15.H        -2.468732    2.571027    0.000000
   16.C        -3.794072    0.895241    0.000000
   17.H        -3.917916   -0.200165    0.000000
   18.H        -4.720524    1.487421    0.000000
   19.C        -0.012576    1.419294    0.000000
   20.H        -0.008083    2.523312    0.000000
 <Oct29-2007> <00:52:32>  >>>> CORORT
 <Oct29-2007> <00:52:32>  >>>> FITINT
 <Oct29-2007> <00:52:34>  >>>> CLSMAT
 <Oct29-2007> <00:52:34>  >>>> ORTHON
 <Oct29-2007> <00:52:34>  >>>> CRTP12
 <Oct29-2007> <00:52:34>  >>>> GENPT
 <Oct29-2007> <00:52:34>  Acc.Num.Int.=   4.000
 <Oct29-2007> <00:52:35>  Block Length= 128
 <Oct29-2007> <00:52:36>  >>>> PTCOR
 <Oct29-2007> <00:52:37>  >>>> PTBAS
 <Oct29-2007> <00:52:37>  >>>> CYCLE
 <Oct29-2007> <00:52:38>    1
 <Oct29-2007> <00:52:40>    2  ErrMat   0.01137934  MaxEl  0.00300872
 <Oct29-2007> <00:52:41>    3  ErrMat   0.00652672  MaxEl  0.00130097
 <Oct29-2007> <00:52:43>    4  ErrMat   0.00353550  MaxEl  0.00107616
 <Oct29-2007> <00:52:44>    5  ErrMat   0.00216955  MaxEl -0.00095749
 <Oct29-2007> <00:52:46>    6  ErrMat   0.00035645  MaxEl  0.00011356
 <Oct29-2007> <00:52:47>    7  ErrMat   0.00004716  MaxEl  0.00001012
 <Oct29-2007> <00:52:47>  SCF converged
 <Oct29-2007> <00:52:48>    8  ErrMat   0.00001793  MaxEl  0.00000404
 <Oct29-2007> <00:52:49>  >>>> TOTEN
 <Oct29-2007> <00:52:53>  >>>> POPAN
 <Oct29-2007> <00:52:53>  >>>> DEBYE
 <Oct29-2007> <00:52:53>  >>>> AMETS
 <Oct29-2007> <00:52:53>  >>>> ENGRAD
 <Oct29-2007> <00:52:55>  E-test:  old,new=  -5.15951,  -5.16209 hartree
 <Oct29-2007> <00:52:55>  max gradient:      0.00874092 au/angstrom,radian
 <Oct29-2007> <00:52:55>  max cart. step:    0.04485514 angstrom
  Coordinates in Geometry Cycle 4
    Atom         X           Y           Z   (Angstrom)
    1.C        -1.268670    0.705066    0.000000
    2.C        -1.214789   -0.730900    0.000000
    3.C         0.021175   -1.418390    0.000000
    4.C         1.268670   -0.705066    0.000000
    5.C         1.214789    0.730900    0.000000
    6.H        -2.154069   -1.308829    0.000000
    7.H         0.027471   -2.522516    0.000000
    8.H         2.154069    1.308829    0.000000
    9.C         2.568823   -1.464920    0.000000
   10.C         3.810716   -0.911684    0.000000
   11.H         3.962772    0.179415    0.000000
   12.H         2.465534   -2.565939    0.000000
   13.H         4.722003   -1.530010    0.000000
   14.C        -2.568823    1.464920    0.000000
   15.H        -2.465534    2.565939    0.000000
   16.C        -3.810716    0.911684    0.000000
   17.H        -3.962772   -0.179415    0.000000
   18.H        -4.722003    1.530010    0.000000
   19.C        -0.021175    1.418390    0.000000
   20.H        -0.027471    2.522516    0.000000
 <Oct29-2007> <00:52:55>  >>>> CORORT
 <Oct29-2007> <00:52:55>  >>>> FITINT
 <Oct29-2007> <00:52:57>  >>>> CLSMAT
 <Oct29-2007> <00:52:57>  >>>> ORTHON
 <Oct29-2007> <00:52:57>  >>>> CRTP12
 <Oct29-2007> <00:52:58>  >>>> GENPT
 <Oct29-2007> <00:52:58>  Acc.Num.Int.=   4.000
 <Oct29-2007> <00:52:59>  Block Length= 128
 <Oct29-2007> <00:53:00>  >>>> PTCOR
 <Oct29-2007> <00:53:00>  >>>> PTBAS
 <Oct29-2007> <00:53:00>  >>>> CYCLE
 <Oct29-2007> <00:53:02>    1
 <Oct29-2007> <00:53:03>    2  ErrMat   0.01107662  MaxEl  0.00293652
 <Oct29-2007> <00:53:05>    3  ErrMat   0.00575748  MaxEl  0.00135017
 <Oct29-2007> <00:53:06>    4  ErrMat   0.00475124  MaxEl -0.00202383
 <Oct29-2007> <00:53:08>    5  ErrMat   0.00266311  MaxEl  0.00096035
 <Oct29-2007> <00:53:09>    6  ErrMat   0.00014035  MaxEl -0.00003921
 <Oct29-2007> <00:53:09>  SCF converged
 <Oct29-2007> <00:53:11>    7  ErrMat   0.00002102  MaxEl -0.00000708
 <Oct29-2007> <00:53:11>  >>>> TOTEN
 <Oct29-2007> <00:53:15>  >>>> POPAN
 <Oct29-2007> <00:53:15>  >>>> DEBYE
 <Oct29-2007> <00:53:15>  >>>> AMETS
 <Oct29-2007> <00:53:16>  >>>> ENGRAD
 <Oct29-2007> <00:53:18>  E-test:  old,new=  -5.16209,  -5.16267 hartree
 <Oct29-2007> <00:53:18>  max gradient:      0.00195292 au/angstrom,radian
 <Oct29-2007> <00:53:18>  max cart. step:    0.02886131 angstrom
  Coordinates in Geometry Cycle 5
    Atom         X           Y           Z   (Angstrom)
    1.C        -1.273049    0.698181    0.000000
    2.C        -1.212776   -0.737393    0.000000
    3.C         0.027419   -1.416629    0.000000
    4.C         1.273049   -0.698181    0.000000
    5.C         1.212776    0.737393    0.000000
    6.H        -2.148243   -1.321665    0.000000
    7.H         0.042153   -2.520660    0.000000
    8.H         2.148243    1.321665    0.000000
    9.C         2.570378   -1.460415    0.000000
   10.C         3.819074   -0.922370    0.000000
   11.H         3.991633    0.165354    0.000000
   12.H         2.459924   -2.560689    0.000000
   13.H         4.718304   -1.558231    0.000000
   14.C        -2.570378    1.460415    0.000000
   15.H        -2.459924    2.560689    0.000000
   16.C        -3.819074    0.922370    0.000000
   17.H        -3.991633   -0.165354    0.000000
   18.H        -4.718304    1.558231    0.000000
   19.C        -0.027419    1.416629    0.000000
   20.H        -0.042153    2.520660    0.000000
 <Oct29-2007> <00:53:18>  >>>> CORORT
 <Oct29-2007> <00:53:18>  >>>> FITINT
 <Oct29-2007> <00:53:20>  >>>> CLSMAT
 <Oct29-2007> <00:53:20>  >>>> ORTHON
 <Oct29-2007> <00:53:20>  >>>> CRTP12
 <Oct29-2007> <00:53:20>  >>>> GENPT
 <Oct29-2007> <00:53:20>  Acc.Num.Int.=   4.000
 <Oct29-2007> <00:53:21>  Block Length= 128
 <Oct29-2007> <00:53:22>  >>>> PTCOR
 <Oct29-2007> <00:53:22>  >>>> PTBAS
 <Oct29-2007> <00:53:22>  >>>> CYCLE
 <Oct29-2007> <00:53:24>    1
 <Oct29-2007> <00:53:25>    2  ErrMat   0.00788887  MaxEl  0.00209651
 <Oct29-2007> <00:53:27>    3  ErrMat   0.00399055  MaxEl  0.00087060
 <Oct29-2007> <00:53:28>    4  ErrMat   0.00329601  MaxEl -0.00140049
 <Oct29-2007> <00:53:30>    5  ErrMat   0.00184469  MaxEl  0.00064598
 <Oct29-2007> <00:53:31>    6  ErrMat   0.00009403  MaxEl -0.00002653
 <Oct29-2007> <00:53:31>  SCF converged
 <Oct29-2007> <00:53:32>    7  ErrMat   0.00001510  MaxEl -0.00000493
 <Oct29-2007> <00:53:33>  >>>> TOTEN
 <Oct29-2007> <00:53:37>  >>>> POPAN
 <Oct29-2007> <00:53:37>  >>>> DEBYE
 <Oct29-2007> <00:53:37>  >>>> AMETS
 <Oct29-2007> <00:53:37>  >>>> ENGRAD
 <Oct29-2007> <00:53:39>  E-test:  old,new=  -5.16267,  -5.16288 hartree
 <Oct29-2007> <00:53:39>  max gradient:      0.00123412 au/angstrom,radian
 <Oct29-2007> <00:53:39>  max cart. step:    0.01385863 angstrom
  Coordinates in Geometry Cycle 6
    Atom         X           Y           Z   (Angstrom)
    1.C        -1.274781    0.694629    0.000000
    2.C        -1.211585   -0.740520    0.000000
    3.C         0.030720   -1.415672    0.000000
    4.C         1.274781   -0.694629    0.000000
    5.C         1.211585    0.740520    0.000000
    6.H        -2.145048   -1.327950    0.000000
    7.H         0.049737   -2.519555    0.000000
    8.H         2.145048    1.327950    0.000000
    9.C         2.570997   -1.458085    0.000000
   10.C         3.822778   -0.927644    0.000000
   11.H         4.005492    0.157964    0.000000
   12.H         2.456911   -2.557924    0.000000
   13.H         4.715843   -1.571603    0.000000
   14.C        -2.570997    1.458085    0.000000
   15.H        -2.456911    2.557924    0.000000
   16.C        -3.822778    0.927644    0.000000
   17.H        -4.005492   -0.157964    0.000000
   18.H        -4.715843    1.571603    0.000000
   19.C        -0.030720    1.415672    0.000000
   20.H        -0.049737    2.519555    0.000000
 <Oct29-2007> <00:53:39>  >>>> CORORT
 <Oct29-2007> <00:53:39>  >>>> FITINT
 <Oct29-2007> <00:53:41>  >>>> CLSMAT
 <Oct29-2007> <00:53:41>  >>>> ORTHON
 <Oct29-2007> <00:53:41>  >>>> CRTP12
 <Oct29-2007> <00:53:41>  >>>> GENPT
 <Oct29-2007> <00:53:41>  Acc.Num.Int.=   4.000
 <Oct29-2007> <00:53:43>  Block Length= 128
 <Oct29-2007> <00:53:44>  >>>> PTCOR
 <Oct29-2007> <00:53:44>  >>>> PTBAS
 <Oct29-2007> <00:53:44>  >>>> CYCLE
 <Oct29-2007> <00:53:46>    1
 <Oct29-2007> <00:53:47>    2  ErrMat   0.00390458  MaxEl  0.00105341
 <Oct29-2007> <00:53:49>    3  ErrMat   0.00196887  MaxEl  0.00043783
 <Oct29-2007> <00:53:50>    4  ErrMat   0.00161121  MaxEl -0.00068099
 <Oct29-2007> <00:53:51>    5  ErrMat   0.00091766  MaxEl  0.00032532
 <Oct29-2007> <00:53:53>    6  ErrMat   0.00004208  MaxEl -0.00001113
 <Oct29-2007> <00:53:53>  SCF converged
 <Oct29-2007> <00:53:54>    7  ErrMat   0.00000613  MaxEl -0.00000167
 <Oct29-2007> <00:53:54>  >>>> TOTEN
 <Oct29-2007> <00:53:59>  >>>> POPAN
 <Oct29-2007> <00:53:59>  >>>> DEBYE
 <Oct29-2007> <00:53:59>  >>>> AMETS
 <Oct29-2007> <00:53:59>  >>>> ENGRAD
 <Oct29-2007> <00:54:01>  E-test:  old,new=  -5.16288,  -5.16294 hartree
 <Oct29-2007> <00:54:01>  max gradient:      0.00072719 au/angstrom,radian
 <Oct29-2007> <00:54:01>  max cart. step:    0.00673402 angstrom
 <Oct29-2007> <00:54:01>  Geometry Converged
  Coordinates in Geometry Cycle 7
    Atom         X           Y           Z   (Angstrom)
    1.C        -1.275571    0.692958    0.000000
    2.C        -1.211019   -0.742021    0.000000
    3.C         0.032350   -1.415268    0.000000
    4.C         1.275571   -0.692958    0.000000
    5.C         1.211019    0.742021    0.000000
    6.H        -2.143539   -1.330958    0.000000
    7.H         0.053297   -2.519077    0.000000
    8.H         2.143539    1.330958    0.000000
    9.C         2.571454   -1.457023    0.000000
   10.C         3.824643   -0.930225    0.000000
   11.H         4.012226    0.154439    0.000000
   12.H         2.455524   -2.556642    0.000000
   13.H         4.714822   -1.577966    0.000000
   14.C        -2.571454    1.457023    0.000000
   15.H        -2.455524    2.556642    0.000000
   16.C        -3.824643    0.930225    0.000000
   17.H        -4.012226   -0.154439    0.000000
   18.H        -4.714822    1.577966    0.000000
   19.C        -0.032350    1.415268    0.000000
   20.H        -0.053297    2.519077    0.000000
 <Oct29-2007> <00:54:01>  >>>> CORORT
 <Oct29-2007> <00:54:01>  >>>> FITINT
 <Oct29-2007> <00:54:03>  >>>> CLSMAT
 <Oct29-2007> <00:54:03>  >>>> ORTHON
 <Oct29-2007> <00:54:03>  >>>> CRTP12
 <Oct29-2007> <00:54:03>  >>>> GENPT
 <Oct29-2007> <00:54:03>  Acc.Num.Int.=   4.000
 <Oct29-2007> <00:54:05>  Block Length= 128
 <Oct29-2007> <00:54:06>  >>>> PTCOR
 <Oct29-2007> <00:54:06>  >>>> PTBAS
 <Oct29-2007> <00:54:06>  >>>> CYCLE
 <Oct29-2007> <00:54:07>    1
 <Oct29-2007> <00:54:09>    2  ErrMat   0.00186157  MaxEl  0.00049830
 <Oct29-2007> <00:54:10>    3  ErrMat   0.00093046  MaxEl  0.00020727
 <Oct29-2007> <00:54:12>    4  ErrMat   0.00076676  MaxEl -0.00032464
 <Oct29-2007> <00:54:13>    5  ErrMat   0.00042923  MaxEl  0.00014970
 <Oct29-2007> <00:54:15>    6  ErrMat   0.00002200  MaxEl -0.00000629
 <Oct29-2007> <00:54:16>    7  ErrMat   0.00000533  MaxEl -0.00000147
 <Oct29-2007> <00:54:17>    8  ErrMat   0.00000109  MaxEl  0.00000031
 <Oct29-2007> <00:54:18>  SCF converged
 <Oct29-2007> <00:54:19>    9  ErrMat   0.00000033  MaxEl -0.00000010
 <Oct29-2007> <00:54:19>  >>>> COREPS
 <Oct29-2007> <00:54:20>  >>>> TOTEN
 <Oct29-2007> <00:54:25>  >>>> POPAN
 <Oct29-2007> <00:54:25>  >>>> DEBYE
 <Oct29-2007> <00:54:25>  >>>> AMETS
 <Oct29-2007> <00:54:25>  >>>> POPUL
 <Oct29-2007> <00:54:25>   Bond Energy LDA      -5.63065051 a.u.
 <Oct29-2007> <00:54:25>   Bond Energy LDA    -153.21779609 eV
 <Oct29-2007> <00:54:25>           + GGA-X      -4.80722310 a.u.
 <Oct29-2007> <00:54:25>           + GGA-X    -130.81119615 eV
 <Oct29-2007> <00:54:25>          + GGA-XC      -5.16295044 a.u.
 <Oct29-2007> <00:54:25>          + GGA-XC    -140.49102977 eV
 <Oct29-2007> <00:54:25>  NORMAL TERMINATION
 <Oct29-2007> <00:54:25>  END
