
 Distributed Data Interface kickoff program.
 Initiating 1 compute processes on 1 nodes to run the following command:
 D:\Tools\WinGAMESS/gamess.07.exe td 

          ******************************************************
          *         GAMESS VERSION = 24 MAR 2007 (R1)          *
          *             FROM IOWA STATE UNIVERSITY             *
          * M.W.SCHMIDT, K.K.BALDRIDGE, J.A.BOATZ, S.T.ELBERT, *
          *   M.S.GORDON, J.H.JENSEN, S.KOSEKI, N.MATSUNAGA,   *
          *          K.A.NGUYEN, S.J.SU, T.L.WINDUS,           *
          *       TOGETHER WITH M.DUPUIS, J.A.MONTGOMERY       *
          *         J.COMPUT.CHEM.  14, 1347-1363(1993)        *
          ******************* WINDOWS VERSION ******************

     SINCE 1993, STUDENTS AND POSTDOCS WORKING AT IOWA STATE UNIVERSITY
     AND ALSO IN THEIR VARIOUS JOBS AFTER LEAVING ISU HAVE MADE IMPORTANT
     CONTRIBUTIONS TO THE CODE:
     IVANA ADAMOVIC, CHRISTINE AIKENS, YURI ALEXEEV, POOJA ARORA, ROB BELL,
     PRADIPTA BANDYOPADHYAY, JONATHAN BENTZ, BRETT BODE, GALINA CHABAN,
     WEI CHEN, CHEOL HO CHOI, PAUL DAY, TIM DUDLEY, DMITRI FEDOROV,
     GRAHAM FLETCHER, MARK FREITAG, KURT GLAESEMANN, GRANT MERRILL,
     TAKESHI NAGATA, HEATHER NETZLOFF, BOSILJKA NJEGIC, RYAN OLSON,
     MIKE PAK, JIM SHOEMAKER, LYUDMILA SLIPCHENKO, JIE SONG,
     TETSUYA TAKETSUGU, SIMON WEBB.

     ADDITIONAL CODE HAS BEEN PROVIDED BY COLLABORATORS IN OTHER GROUPS:
     IOWA STATE UNIVERSITY: JOE IVANIC, KLAUS RUEDENBERG
     UNIVERSITY OF TOKYO: KIMIHIKO HIRAO, HARUYUKI NAKANO, TAKAHITO
          NAKAJIMA, TAKAO TSUNEDA, MUNEAKI KAMIYA, SUSUMU YANAGISAWA,
          KIYOSHI YAGI, MAHITO CHIBA, SEIKEN TOKURA, NAOAKI KAWAKAMI
     UNIVERSITY OF SOUTHERN DENMARK: FRANK JENSEN
     UNIVERSITY OF IOWA: VISVALDAS KAIRYS, HUI LI
     NATIONAL INST. OF STANDARDS AND TECHNOLOGY: WALT STEVENS, DAVID GARMER
     UNIVERSITY OF PISA: BENEDETTA MENNUCCI, JACOPO TOMASI
     UNIVERSITY OF MEMPHIS: HENRY KURTZ, PRAKASHAN KORAMBATH
     UNIVERSITY OF ALBERTA: MARIUSZ KLOBUKOWSKI
     UNIVERSITY OF NEW ENGLAND: MARK SPACKMAN
     MIE UNIVERSITY: HIROAKI UMEDA
     MICHIGAN STATE UNIVERSITY:
          KAROL KOWALSKI, MARTA WLOCH, PIOTR PIECUCH
     UNIVERSITY OF SILESIA: MONIKA MUSIAL, STANISLAW KUCHARSKI
     FACULTES UNIVERSITAIRES NOTRE-DAME DE LA PAIX:
          OLIVIER QUINET, BENOIT CHAMPAGNE
     UNIVERSITY OF CALIFORNIA - SANTA BARBARA: BERNARD KIRTMAN
     INSTITUTE FOR MOLECULAR SCIENCE: KAZUYA ISHIMURA AND SHIGERU NAGASE
     UNIVERSITY OF NOTRE DAME: DAN CHIPMAN
     KYUSHU UNIVERSITY:
          FENG LONG GU, JACEK KORCHOWIEC, MARCIN MAKOWSKI, AND YURIKO AOKI
     PENNSYLVANIA STATE UNIVERSITY:
          TZVETELIN IORDANOV, CHET SWALINA, SHARON HAMMES-SCHIFFER

 EXECUTION OF GAMESS BEGUN Wed Nov  7 15:51:57 2007

            ECHO OF THE FIRST FEW INPUT CARDS -
 INPUT CARD> $CONTRL COORD=CART SCFTYP=RHF DFTTYP=B3LYP TDDFT=EXCITE $END                   
 INPUT CARD> $SYSTEM TIMLIM=3000 MWORDS=50 $END                                             
 INPUT CARD> $BASIS  GBASIS=N21 ngauss=3 NDFUNC=1 $END                                      
 INPUT CARD> $TDDFT NSTATE=10 $END                                                          
 INPUT CARD> $DATA                                                                          
 INPUT CARD>divinylbenzene                                                                  
 INPUT CARD>cnh  2                                                                          
 INPUT CARD>                                                                                
 INPUT CARD> C           6.0  -1.3939882447   0.2213755683   0.0000000000                   
 INPUT CARD> C           6.0   1.3939882447  -0.2213755683   0.0000000000                   
 INPUT CARD> C           6.0  -0.4919705715   1.2868407086   0.0000000000                   
 INPUT CARD> C           6.0   0.4919705715  -1.2868407086   0.0000000000                   
 INPUT CARD> C           6.0   0.8733456137   1.0731470812   0.0000000000                   
 INPUT CARD> C           6.0  -0.8733456137  -1.0731470812   0.0000000000                   
 INPUT CARD> H           1.0  -0.8715846529   2.3007508400   0.0000000000                   
 INPUT CARD> H           1.0   0.8715846529  -2.3007508400   0.0000000000                   
 INPUT CARD> H           1.0   1.5389282156   1.9253173698   0.0000000000                   
 INPUT CARD> H           1.0  -1.5389282156  -1.9253173698   0.0000000000                   
 INPUT CARD> C           6.0   2.8621079750  -0.5097799325   0.0000000000                   
 INPUT CARD> C           6.0  -2.8621079750   0.5097799325   0.0000000000                   
 INPUT CARD> H           1.0   3.1070578958  -1.5662206184   0.0000000000                   
 INPUT CARD> H           1.0  -3.1070578958   1.5662206184   0.0000000000                   
 INPUT CARD> C           6.0   3.8375160019   0.3700444858   0.0000000000                   
 INPUT CARD> C           6.0  -3.8375160019  -0.3700444858   0.0000000000                   
 INPUT CARD> H           1.0   3.6688910549   1.4371664215   0.0000000000                   
 INPUT CARD> H           1.0  -3.6688910549  -1.4371664215   0.0000000000                   
 INPUT CARD> H           1.0   4.8733853301   0.0604752833   0.0000000000                   
 INPUT CARD> H           1.0  -4.8733853301  -0.0604752833   0.0000000000                   
 INPUT CARD> $END                                                                           
 INPUT CARD>                                                                                
   50000000 WORDS OF MEMORY AVAILABLE

     BASIS OPTIONS
     -------------
     GBASIS=N21          IGAUSS=       3      POLAR=COMMON  
     NDFUNC=       1     NFFUNC=       0     DIFFSP=       F
     NPFUNC=       0      DIFFS=       F

     GRID-BASED DFT OPTIONS
     ----------------------
     DFTTYP=B3LYP        QOP   =   0.000     PFTYP =NONE    
     NRAD  =      96     NTHE  =      12     NPHI  =      24
     NRAD0 =      24     NTHE0 =       8     NPHI0 =      16
      SWOFF=    5.00E-03 (PURE SCF -> DFT)
     SWITCH=    3.00E-04 (COARSE -> TIGHT GRID)
     THRESH=    0.00E+00 GTHRE=    1.00E+00


     RUN TITLE
     ---------
 divinylbenzene                                                                  

 THE POINT GROUP OF THE MOLECULE IS CNH     
 THE ORDER OF THE PRINCIPAL AXIS IS     2

 THE MOMENTS OF INERTIA ARE (AMU-ANGSTROM**2)
 IXX=   105.330   IYY=   721.564   IZZ=   826.894

 ATOM      ATOMIC                      COORDINATES (BOHR)
           CHARGE         X                   Y                   Z
 C           6.0    -2.6326754828        0.4281718636        0.0000000000
 C           6.0     2.6326754828       -0.4281718636        0.0000000000
 C           6.0    -0.9206034836        2.4352305938        0.0000000000
 C           6.0     0.9206034836       -2.4352305938        0.0000000000
 C           6.0     1.6579442427        2.0217776949        0.0000000000
 C           6.0    -1.6579442427       -2.0217776949        0.0000000000
 H           1.0    -1.6308111945        4.3539080202        0.0000000000
 H           1.0     1.6308111945       -4.3539080202        0.0000000000
 H           1.0     2.9217169051        3.6274386342        0.0000000000
 H           1.0    -2.9217169051       -3.6274386342        0.0000000000
 C           6.0     5.4049652465       -0.9835319540        0.0000000000
 C           6.0    -5.4049652465        0.9835319540        0.0000000000
 H           1.0     5.8603962828       -2.9816297594        0.0000000000
 H           1.0    -5.8603962828        2.9816297594        0.0000000000
 C           6.0     7.2544141054        0.6722013017        0.0000000000
 C           6.0    -7.2544141054       -0.6722013017        0.0000000000
 H           1.0     6.9432907143        2.6899450727        0.0000000000
 H           1.0    -6.9432907143       -2.6899450727        0.0000000000
 H           1.0     9.2097254111        0.0798955904        0.0000000000
 H           1.0    -9.2097254111       -0.0798955904        0.0000000000

          INTERNUCLEAR DISTANCES (ANGS.)
          ------------------------------

                1 C          2 C          3 C          4 C          5 C     

   1 C       0.0000000    2.8229136 *  1.3960128 *  2.4148617 *  2.4220482 *
   2 C       2.8229136 *  0.0000000    2.4148617 *  1.3960128 *  1.3952984 *
   3 C       1.3960128 *  2.4148617 *  0.0000000    2.7553541 *  1.3819382 *
   4 C       2.4148617 *  1.3960128 *  2.7553541 *  0.0000000    2.3906044 *
   5 C       2.4220482 *  1.3952984 *  1.3819382 *  2.3906044 *  0.0000000  
   6 C       1.3952984 *  2.4220482 *  2.3906044 *  1.3819382 *  2.7672204 *
   7 H       2.1439932 *  3.3902717    1.0826452 *  3.8379807    2.1334931 *
   8 H       3.3902717    2.1439932 *  3.8379807    1.0826452 *  3.3738984  
   9 H       3.3919635    2.1515804 *  2.1288970 *  3.3784730    1.0812929 *
  10 H       2.1515804 *  3.3919635    3.3784730    2.1288970 *  3.8483573  
  11 C       4.3184422    1.4961793 *  3.8049558    2.4942684 *  2.5418170 *
  12 C       1.4961793 *  4.3184422    2.4942684 *  3.8049558    3.7776972  
  13 H       4.8430276    2.1778925 *  4.5927078    2.6299686 *  3.4577062  
  14 H       2.1778925 *  4.8430276    2.6299686 *  4.5927078    4.0108270  
  15 C       5.2336163    2.5140815 *  4.4254909    3.7333554    3.0464175  
  16 C       2.5140815 *  5.2336163    3.7333554    4.4254909    4.9269685  
  17 H       5.2068123    2.8153054 *  4.1635763    4.1848583    2.8191460 *
  18 H       2.8153054 *  5.2068123    4.1848583    4.1635763    5.1897580  
  19 H       6.2694386    3.4907942    5.5037275    4.5838909    4.1262358  
  20 H       3.4907942    6.2694386    4.5838909    5.5037275    5.8574752  

                6 C          7 H          8 H          9 H         10 H     

   1 C       1.3952984 *  2.1439932 *  3.3902717    3.3919635    2.1515804 *
   2 C       2.4220482 *  3.3902717    2.1439932 *  2.1515804 *  3.3919635  
   3 C       2.3906044 *  1.0826452 *  3.8379807    2.1288970 *  3.3784730  
   4 C       1.3819382 *  3.8379807    1.0826452 *  3.3784730    2.1288970 *
   5 C       2.7672204 *  2.1334931 *  3.3738984    1.0812929 *  3.8483573  
   6 C       0.0000000    3.3738984    2.1334931 *  3.8483573    1.0812929 *
   7 H       3.3738984    0.0000000    4.9206155    2.4395743 *  4.2784343  
   8 H       2.1334931 *  4.9206155    0.0000000    4.2784343    2.4395743 *
   9 H       3.8483573    2.4395743 *  4.2784343    0.0000000    4.9295627  
  10 H       1.0812929 *  4.2784343    2.4395743 *  4.9295627    0.0000000  
  11 C       3.7776972    4.6732798    2.6776407 *  2.7713721 *  4.6230797  
  12 C       2.5418170 *  2.6776407 *  4.6732798    4.6230797    2.7713721 *
  13 H       4.0108270    5.5482488    2.3530566 *  3.8275146    4.6598431  
  14 H       3.4577062    2.3530566 *  5.5482488    4.6598431    3.8275146  
  15 C       4.9269685    5.0895241    3.9912274    2.7753161 *  5.8459249  
  16 C       3.0464175    3.9912274    5.0895241    5.8459249    2.7753161 *
  17 H       5.1897580    4.6218717    4.6687202    2.1851849 *  6.1990063  
  18 H       2.8191460 *  4.6687202    4.6218717    6.1990063    2.1851849 *
  19 H       5.8574752    6.1663210    4.6464823    3.8205026    6.7127593  
  20 H       4.1262358    4.6464823    6.1663210    6.7127593    3.8205026  

               11 C         12 C         13 H         14 H         15 C     

   1 C       4.3184422    1.4961793 *  4.8430276    2.1778925 *  5.2336163  
   2 C       1.4961793 *  4.3184422    2.1778925 *  4.8430276    2.5140815 *
   3 C       3.8049558    2.4942684 *  4.5927078    2.6299686 *  4.4254909  
   4 C       2.4942684 *  3.8049558    2.6299686 *  4.5927078    3.7333554  
   5 C       2.5418170 *  3.7776972    3.4577062    4.0108270    3.0464175  
   6 C       3.7776972    2.5418170 *  4.0108270    3.4577062    4.9269685  
   7 H       4.6732798    2.6776407 *  5.5482488    2.3530566 *  5.0895241  
   8 H       2.6776407 *  4.6732798    2.3530566 *  5.5482488    3.9912274  
   9 H       2.7713721 *  4.6230797    3.8275146    4.6598431    2.7753161 *
  10 H       4.6230797    2.7713721 *  4.6598431    3.8275146    5.8459249  
  11 C       0.0000000    5.8143057    1.0844664 *  6.3198670    1.3135874 *
  12 C       5.8143057    0.0000000    6.3198670    1.0844664 *  6.7010811  
  13 H       1.0844664 *  6.3198670    0.0000000    6.9589815    2.0694665 *
  14 H       6.3198670    1.0844664 *  6.9589815    0.0000000    7.0468393  
  15 C       1.3135874 *  6.7010811    2.0694665 *  7.0468393    0.0000000  
  16 C       6.7010811    1.3135874 *  7.0468393    2.0694665 *  7.7106321  
  17 H       2.1074864 *  6.5965138    3.0554853    6.7771778    1.0803627 *
  18 H       6.5965138    2.1074864 *  6.7771778    3.0554853    7.7208910  
  19 H       2.0905568 *  7.7485309    2.4012605 *  8.1212526    1.0811375 *
  20 H       7.7485309    2.0905568 *  8.1212526    2.4012605 *  8.7215337  

               16 C         17 H         18 H         19 H         20 H     

   1 C       2.5140815 *  5.2068123    2.8153054 *  6.2694386    3.4907942  
   2 C       5.2336163    2.8153054 *  5.2068123    3.4907942    6.2694386  
   3 C       3.7333554    4.1635763    4.1848583    5.5037275    4.5838909  
   4 C       4.4254909    4.1848583    4.1635763    4.5838909    5.5037275  
   5 C       4.9269685    2.8191460 *  5.1897580    4.1262358    5.8574752  
   6 C       3.0464175    5.1897580    2.8191460 *  5.8574752    4.1262358  
   7 H       3.9912274    4.6218717    4.6687202    6.1663210    4.6464823  
   8 H       5.0895241    4.6687202    4.6218717    4.6464823    6.1663210  
   9 H       5.8459249    2.1851849 *  6.1990063    3.8205026    6.7127593  
  10 H       2.7753161 *  6.1990063    2.1851849 *  6.7127593    3.8205026  
  11 C       6.7010811    2.1074864 *  6.5965138    2.0905568 *  7.7485309  
  12 C       1.3135874 *  6.5965138    2.1074864 *  7.7485309    2.0905568 *
  13 H       7.0468393    3.0554853    6.7771778    2.4012605 *  8.1212526  
  14 H       2.0694665 *  6.7771778    3.0554853    8.1212526    2.4012605 *
  15 C       7.7106321    1.0803627 *  7.7208910    1.0811375 *  8.7215337  
  16 C       0.0000000    7.7208910    1.0803627 *  8.7215337    1.0811375 *
  17 H       7.7208910    0.0000000    7.8806621    1.8292307 *  8.6725669  
  18 H       1.0803627 *  7.8806621    0.0000000    8.6725669    1.8292307 *
  19 H       8.7215337    1.8292307 *  8.6725669    0.0000000    9.7475211  
  20 H       1.0811375 *  8.6725669    1.8292307 *  9.7475211    0.0000000  

  * ... LESS THAN  3.000


     ATOMIC BASIS SET
     ----------------
 THE CONTRACTED PRIMITIVE FUNCTIONS HAVE BEEN UNNORMALIZED
 THE CONTRACTED BASIS FUNCTIONS ARE NOW NORMALIZED TO UNITY

  SHELL TYPE  PRIMITIVE        EXPONENT          CONTRACTION COEFFICIENT(S)

 C         

      4   S       1           172.2560000    0.061766907377
      4   S       2            25.9109000    0.358794042852
      4   S       3             5.5333500    0.700713083689

      5   L       4             3.6649800   -0.395895162119    0.236459946619
      5   L       5             0.7705450    1.215834355681    0.860618805716

      6   L       6             0.1958570    1.000000000000    1.000000000000

 C         

     10   S       7           172.2560000    0.061766907377
     10   S       8            25.9109000    0.358794042852
     10   S       9             5.5333500    0.700713083689

     11   L      10             3.6649800   -0.395895162119    0.236459946619
     11   L      11             0.7705450    1.215834355681    0.860618805716

     12   L      12             0.1958570    1.000000000000    1.000000000000

 C         

     16   S      13           172.2560000    0.061766907377
     16   S      14            25.9109000    0.358794042852
     16   S      15             5.5333500    0.700713083689

     17   L      16             3.6649800   -0.395895162119    0.236459946619
     17   L      17             0.7705450    1.215834355681    0.860618805716

     18   L      18             0.1958570    1.000000000000    1.000000000000

 H         

     21   S      19             5.4471780    0.156284978695
     21   S      20             0.8245472    0.904690876670

     22   S      21             0.1831916    1.000000000000

 H         

     25   S      22             5.4471780    0.156284978695
     25   S      23             0.8245472    0.904690876670

     26   S      24             0.1831916    1.000000000000

 C         

     30   S      25           172.2560000    0.061766907377
     30   S      26            25.9109000    0.358794042852
     30   S      27             5.5333500    0.700713083689

     31   L      28             3.6649800   -0.395895162119    0.236459946619
     31   L      29             0.7705450    1.215834355681    0.860618805716

     32   L      30             0.1958570    1.000000000000    1.000000000000

 H         

     35   S      31             5.4471780    0.156284978695
     35   S      32             0.8245472    0.904690876670

     36   S      33             0.1831916    1.000000000000

 C         

     40   S      34           172.2560000    0.061766907377
     40   S      35            25.9109000    0.358794042852
     40   S      36             5.5333500    0.700713083689

     41   L      37             3.6649800   -0.395895162119    0.236459946619
     41   L      38             0.7705450    1.215834355681    0.860618805716

     42   L      39             0.1958570    1.000000000000    1.000000000000

 H         

     45   S      40             5.4471780    0.156284978695
     45   S      41             0.8245472    0.904690876670

     46   S      42             0.1831916    1.000000000000

 H         

     49   S      43             5.4471780    0.156284978695
     49   S      44             0.8245472    0.904690876670

     50   S      45             0.1831916    1.000000000000

 TOTAL NUMBER OF BASIS SET SHELLS             =   50
 NUMBER OF CARTESIAN GAUSSIAN BASIS FUNCTIONS =  110
 NUMBER OF ELECTRONS                          =   70
 CHARGE OF MOLECULE                           =    0
 SPIN MULTIPLICITY                            =    1
 NUMBER OF OCCUPIED ORBITALS (ALPHA)          =   35
 NUMBER OF OCCUPIED ORBITALS (BETA )          =   35
 TOTAL NUMBER OF ATOMS                        =   20
 THE NUCLEAR REPULSION ENERGY IS      452.1260015068

     $NEO OPTIONS
     ------------
     NUNIQN=       0     BASNUC=DZSNB        NEOSCF=NONE    
     NEOCI =NONE         NUMULT=       2     NUCST =       1
     NAUXNB=       0     VNUCEX=       F     NEOOPT=       F
     NTAUXB=       0     NEOHSS=       F     HSSINI=READH   
     HSSUPD=POWELLUP     DIRNUC=       F     SYMNUC=       F
     QMTOLN= 0.0E+00     USRDEX=       F
     POSNEO=       F     POSPRP=       F

     $CONTRL OPTIONS
     ---------------
 SCFTYP=RHF          RUNTYP=ENERGY       EXETYP=RUN     
 MPLEVL=       0     CITYP =NONE         CCTYP =NONE         VBTYP =NONE    
 DFTTYP=B3LYP        TDDFT =EXCITE  
 MULT  =       1     ICHARG=       0     NZVAR =       0     COORD =CART    
 PP    =NONE         RELWFN=NONE         LOCAL =NONE         NUMGRD=       F
 ISPHER=      -1     NOSYM =       0     MAXIT =      30     UNITS =ANGS    
 PLTORB=       F     MOLPLT=       F     AIMPAC=       F     FRIEND=        
 NPRINT=       7     IREST =       0     GEOM  =INPUT   
 NORMF =       0     NORMP =       0     ITOL  =      20     ICUT  =       9
 INTTYP=BEST         GRDTYP=BEST         QMTTOL= 1.0E-06

     $SYSTEM OPTIONS
     ---------------
  REPLICATED MEMORY=    50000000 WORDS (ON EVERY NODE).
 DISTRIBUTED MEMDDI=           0 MILLION WORDS IN AGGREGATE,
 MEMDDI DISTRIBUTED OVER   1 PROCESSORS IS           0 WORDS/PROCESSOR.
 TOTAL MEMORY REQUESTED ON EACH PROCESSOR=    50000000 WORDS.
 TIMLIM=        3000.00 MINUTES, OR     2.08 DAYS.
 PARALL= F  BALTYP=  NXTVAL  KDIAG=    0  COREFL= F

          ----------------
          PROPERTIES INPUT
          ----------------

     MOMENTS            FIELD           POTENTIAL          DENSITY
 IEMOM =       1   IEFLD =       0   IEPOT =       0   IEDEN =       0
 WHERE =COMASS     WHERE =NUCLEI     WHERE =NUCLEI     WHERE =NUCLEI  
 OUTPUT=BOTH       OUTPUT=BOTH       OUTPUT=BOTH       OUTPUT=BOTH    
 IEMINT=       0   IEFINT=       0                     IEDINT=       0
                                                       MORB  =       0
          EXTRAPOLATION IN EFFECT
          DIIS IN EFFECT
 ORBITAL PRINTING OPTION: NPREO=   1 110   2   1

     -------------------------------
     INTEGRAL TRANSFORMATION OPTIONS
     -------------------------------
     NWORD  =         0     CUTOFF = 1.0E-09
     MPTRAN =         0     DIRTRF =       F
     AOINTS =DUP     

          ----------------------
          INTEGRAL INPUT OPTIONS
          ----------------------
 NOPK  =       1 NORDER=       0 SCHWRZ=       T

          ----------------------
          TDDFT INPUT PARAMETERS
          ----------------------
 NSTATE=      10  IROOT=       1   MULT=       1
 MAXVEC=     200 NTRIAL=       5 CNVTOL=  1.00E-07
 MAXGRD= 1000000  ILENG=     200 RHOMIN=  1.00E-12

     ------------------------------------------
     THE POINT GROUP IS CNH, NAXIS= 2, ORDER= 4
     ------------------------------------------

     DIMENSIONS OF THE SYMMETRY SUBSPACES ARE
 AG  =   45     AU  =   10     BU  =   45     BG  =   10

 ..... DONE SETTING UP THE RUN .....
 STEP CPU TIME =     0.05 TOTAL CPU TIME =        0.0 (    0.0 MIN)
 TOTAL WALL CLOCK TIME=        0.1 SECONDS, CPU UTILIZATION IS  60.26%

          ********************
          1 ELECTRON INTEGRALS
          ********************
 ...... END OF ONE-ELECTRON INTEGRALS ......
 STEP CPU TIME =     0.03 TOTAL CPU TIME =        0.1 (    0.0 MIN)
 TOTAL WALL CLOCK TIME=        0.1 SECONDS, CPU UTILIZATION IS  71.56%

          -------------
          GUESS OPTIONS
          -------------
          GUESS =HUCKEL            NORB  =       0          NORDER=       0
          MIX   =       F          PRTMO =       F          PUNMO =       F
          TOLZ  = 1.0E-08          TOLE  = 1.0E-05
          SYMDEN=       F          PURIFY=       F

 INITIAL GUESS ORBITALS GENERATED BY HUCKEL   ROUTINE.
 HUCKEL GUESS REQUIRES    116680 WORDS.

 SYMMETRIES FOR INITIAL GUESS ORBITALS FOLLOW.   BOTH SET(S).
    35 ORBITALS ARE OCCUPIED (   10 CORE ORBITALS).
    11=AG      12=BU      13=AG      14=BU      15=BU      16=AG      17=AG  
    18=AG      19=BU      20=AG      21=BU      22=AU      23=BU      24=AG  
    25=BU      26=BG      27=BU      28=AG      29=AU      30=BU      31=BU  
    32=BG      33=BG      34=AG      35=AG      36=AU      37=AU      38=BG  
    39=AU      40=BG      41=AG      42=AG      43=AG      44=AG      45=AG  
 ...... END OF INITIAL ORBITAL SELECTION ......
 STEP CPU TIME =     0.13 TOTAL CPU TIME =        0.2 (    0.0 MIN)
 TOTAL WALL CLOCK TIME=        0.2 SECONDS, CPU UTILIZATION IS  86.75%

                    ----------------------
                    AO INTEGRAL TECHNOLOGY
                    ----------------------
     S,P,L SHELL ROTATED AXIS INTEGRALS, REPROGRAMMED BY
        KAZUYA ISHIMURA (IMS) AND JOSE SIERRA (SYNSTAR).
     S,P,D,L SHELL ROTATED AXIS INTEGRALS PROGRAMMED BY
        KAZUYA ISHIMURA (INSTITUTE FOR MOLECULAR SCIENCE).
     S,P,D,F,G SHELL TO TOTAL QUARTET ANGULAR MOMENTUM SUM 5,
        ERIC PROGRAM BY GRAHAM FLETCHER (ELORET AND NASA ADVANCED
        SUPERCOMPUTING DIVISION, AMES RESEARCH CENTER).
     S,P,D,F,G,L SHELL GENERAL RYS QUADRATURE PROGRAMMED BY
        MICHEL DUPUIS (PACIFIC NORTHWEST NATIONAL LABORATORY).

          --------------------
          2 ELECTRON INTEGRALS
          --------------------

 THE -PK- OPTION IS OFF, THE INTEGRALS ARE NOT IN SUPERMATRIX FORM.
 STORING   15000 INTEGRALS/RECORD ON DISK, USING 12 BYTES/INTEGRAL.
 TWO ELECTRON INTEGRAL EVALUATION REQUIRES   90631 WORDS OF MEMORY.
 SCHWARZ INEQUALITY OVERHEAD:      5711 INTEGRALS, T=        0.02
 II,JST,KST,LST =  1  1  1  1 NREC =         1 INTLOC =    1
 II,JST,KST,LST =  2  1  1  1 NREC =         1 INTLOC =    1
 II,JST,KST,LST =  3  1  1  1 NREC =         1 INTLOC =    1
 II,JST,KST,LST =  4  1  1  1 NREC =         1 INTLOC =    1
 II,JST,KST,LST =  5  1  1  1 NREC =         1 INTLOC =    3
 II,JST,KST,LST =  6  1  1  1 NREC =         1 INTLOC =  325
 II,JST,KST,LST =  7  1  1  1 NREC =         1 INTLOC = 3663
 II,JST,KST,LST =  8  1  1  1 NREC =         1 INTLOC = 3663
 II,JST,KST,LST =  9  1  1  1 NREC =         1 INTLOC = 3663
 II,JST,KST,LST = 10  1  1  1 NREC =         1 INTLOC = 3663
 II,JST,KST,LST = 11  1  1  1 NREC =         1 INTLOC = 5373
 II,JST,KST,LST = 12  1  1  1 NREC =         2 INTLOC = 5715
 II,JST,KST,LST = 13  1  1  1 NREC =         4 INTLOC =12845
 II,JST,KST,LST = 14  1  1  1 NREC =         4 INTLOC =12845
 II,JST,KST,LST = 15  1  1  1 NREC =         4 INTLOC =12845
 II,JST,KST,LST = 16  1  1  1 NREC =         4 INTLOC =12845
 II,JST,KST,LST = 17  1  1  1 NREC =         5 INTLOC =10135
 II,JST,KST,LST = 18  1  1  1 NREC =        10 INTLOC =14047
 II,JST,KST,LST = 19  1  1  1 NREC =        20 INTLOC = 1918
 II,JST,KST,LST = 20  1  1  1 NREC =        20 INTLOC = 1918
 II,JST,KST,LST = 21  1  1  1 NREC =        20 INTLOC = 1918
 II,JST,KST,LST = 22  1  1  1 NREC =        22 INTLOC =10548
 II,JST,KST,LST = 23  1  1  1 NREC =        26 INTLOC = 4854
 II,JST,KST,LST = 24  1  1  1 NREC =        26 INTLOC = 4854
 II,JST,KST,LST = 25  1  1  1 NREC =        26 INTLOC = 4854
 II,JST,KST,LST = 26  1  1  1 NREC =        29 INTLOC = 7931
 II,JST,KST,LST = 27  1  1  1 NREC =        34 INTLOC =  231
 II,JST,KST,LST = 28  1  1  1 NREC =        34 INTLOC =  231
 II,JST,KST,LST = 29  1  1  1 NREC =        34 INTLOC =  231
 II,JST,KST,LST = 30  1  1  1 NREC =        34 INTLOC =  231
 II,JST,KST,LST = 31  1  1  1 NREC =        36 INTLOC = 8998
 II,JST,KST,LST = 32  1  1  1 NREC =        51 INTLOC = 7121
 II,JST,KST,LST = 33  1  1  1 NREC =        78 INTLOC = 7030
 II,JST,KST,LST = 34  1  1  1 NREC =        78 INTLOC = 7030
 II,JST,KST,LST = 35  1  1  1 NREC =        78 INTLOC = 7030
 II,JST,KST,LST = 36  1  1  1 NREC =        83 INTLOC =12864
 II,JST,KST,LST = 37  1  1  1 NREC =        92 INTLOC =13330
 II,JST,KST,LST = 38  1  1  1 NREC =        92 INTLOC =13330
 II,JST,KST,LST = 39  1  1  1 NREC =        92 INTLOC =13330
 II,JST,KST,LST = 40  1  1  1 NREC =        92 INTLOC =13330
 II,JST,KST,LST = 41  1  1  1 NREC =        96 INTLOC = 8031
 II,JST,KST,LST = 42  1  1  1 NREC =       118 INTLOC =13576
 II,JST,KST,LST = 43  1  1  1 NREC =       161 INTLOC =  851
 II,JST,KST,LST = 44  1  1  1 NREC =       161 INTLOC =  851
 II,JST,KST,LST = 45  1  1  1 NREC =       161 INTLOC =  851
 II,JST,KST,LST = 46  1  1  1 NREC =       169 INTLOC = 4597
 II,JST,KST,LST = 47  1  1  1 NREC =       183 INTLOC = 3582
 II,JST,KST,LST = 48  1  1  1 NREC =       183 INTLOC = 3582
 II,JST,KST,LST = 49  1  1  1 NREC =       183 INTLOC = 3582
 II,JST,KST,LST = 50  1  1  1 NREC =       189 INTLOC =13885
 SCHWARZ INEQUALITY TEST SKIPPED    215908 INTEGRAL BLOCKS.
 TOTAL NUMBER OF NONZERO TWO-ELECTRON INTEGRALS =             3019414
        202 INTEGRAL RECORDS WERE STORED ON DISK FILE  8.
  ...... END OF TWO-ELECTRON INTEGRALS .....
 STEP CPU TIME =     1.33 TOTAL CPU TIME =        1.5 (    0.0 MIN)
 TOTAL WALL CLOCK TIME=        5.5 SECONDS, CPU UTILIZATION IS  27.76%

          --------------------------
             R-B3LYP SCF CALCULATION
          --------------------------

     NUCLEAR ENERGY =       452.1260015068
     MAXIT =   30     NPUNCH=    2
     EXTRAP=T  DAMP=F  SHIFT=F  RSTRCT=F  DIIS=T  DEM=F  SOSCF=F
           DENSITY MATRIX CONV=  1.00E-05
     DFT GRID SWITCH THRESHOLD=  3.00E-04
      DFT SWITCH OFF THRESHOLD=  5.00E-03
     MEMORY REQUIRED FOR RHF STEP=    743611 WORDS.

 DFT CODE IS SWITCHING FROM 96 12 24 TO THE COARSER GRID 24  8 16

     EXCHANGE FUNCTIONAL   =B88&HFX   
     CORRELATION FUNCTIONAL=LYP88&VWN5
     DFT THRESHOLD         =.163E-07
     GRID CHANGE THRESHOLD =.300E-03
 DFT IS SWITCHED OFF, PERFORMING PURE SCF UNTIL SWOFF THRESHOLD IS REACHED.

 ITER EX DEM     TOTAL ENERGY        E CHANGE  DENSITY CHANGE    DIIS ERROR
   1  0  0     -381.6221382717  -381.6221382717   0.289165514   0.607072946
          * * *   INITIATING DIIS PROCEDURE   * * *
   2  1  0     -382.2980146871    -0.6758764155   0.078420937   0.088604211
   3  2  0     -382.3218295512    -0.0238148641   0.034266586   0.014085209
   4  3  0     -382.3241211197    -0.0022915684   0.009705772   0.007979060
   5  4  0     -382.3245001300    -0.0003790104   0.002443599   0.001808362
 CONVERGED TO SWOFF, SO DFT CALCULATION IS NOW SWITCHED ON.
          * * *   INITIATING DIIS PROCEDURE   * * *
   6  5  0     -384.6271792440    -2.3026791140   0.112757470   0.094869479
   7  6  0     -384.6576817283    -0.0305024843   0.028408788   0.026347445
   8  7  0     -384.6609350309    -0.0032533026   0.016247391   0.017718530
   9  8  0     -384.6632988939    -0.0023638630   0.003736274   0.005274023
  10  9  0     -384.6634174112    -0.0001185172   0.000700506   0.000849854
  11 10  0     -384.6634205536    -0.0000031424   0.000219073   0.000166593
 DFT CODE IS SWITCHING BACK TO THE FINER GRID
          * * *   INITIATING DIIS PROCEDURE   * * *
  12 11  0     -384.6654224224    -0.0020018688   0.002805802   0.001595835
  13 12  0     -384.6654549818    -0.0000325594   0.000347802   0.000150639
  14 13  0     -384.6654550271    -0.0000000453   0.000222680   0.000203495
  15 14  0     -384.6654552592    -0.0000002321   0.000051679   0.000073091
  16 15  0     -384.6654552772    -0.0000000180   0.000018255   0.000026095
  17 16  0     -384.6654552796    -0.0000000024   0.000002400   0.000002366
  18 17  0     -384.6654552797     0.0000000000   0.000001398   0.000001162

          -----------------
          DENSITY CONVERGED
          -----------------
     TIME TO FORM FOCK OPERATORS=      42.8 SECONDS (       2.4 SEC/ITER)
     TIME TO SOLVE SCF EQUATIONS=       0.3 SECONDS (       0.0 SEC/ITER)

 FINAL R-B3LYP ENERGY IS     -384.6654552797 AFTER  18 ITERATIONS
 DFT EXCHANGE + CORRELATION ENERGY =       -46.5201553555
 TOTAL ELECTRON NUMBER             =        70.0027939810

          ------------
          EIGENVECTORS
          ------------

                      1          2          3          4          5
                  -10.1362   -10.1362   -10.1274   -10.1274   -10.1252
                     BU         AG         BU         AG         AG  
    1  C  1  S    0.694627   0.694133  -0.036613   0.036798   0.011350
    2  C  1  S    0.079123   0.077966  -0.002178   0.002245   0.000410
    3  C  1  X    0.000649   0.000223  -0.001386   0.001202  -0.000605
    4  C  1  Y   -0.000083  -0.000004  -0.000226   0.000315  -0.001390
    5  C  1  Z    0.000000   0.000000   0.000000   0.000000   0.000000
    6  C  1  S   -0.089689  -0.071651  -0.012434   0.010054   0.003909
    7  C  1  X   -0.015799  -0.002315   0.015932  -0.016898   0.004952
    8  C  1  Y    0.003173   0.001016   0.004168  -0.007851   0.022278
    9  C  1  Z    0.000000   0.000000   0.000000   0.000000   0.000000
   10  C  2  S   -0.694627   0.694133   0.036613   0.036798   0.011350
   11  C  2  S   -0.079123   0.077966   0.002178   0.002245   0.000410
   12  C  2  X    0.000649  -0.000223  -0.001386  -0.001202   0.000605
   13  C  2  Y   -0.000083   0.000004  -0.000226  -0.000315   0.001390
   14  C  2  Z    0.000000   0.000000   0.000000   0.000000   0.000000
   15  C  2  S    0.089689  -0.071651   0.012434   0.010054   0.003909
   16  C  2  X   -0.015799   0.002315   0.015932   0.016898  -0.004952
   17  C  2  Y    0.003173  -0.001016   0.004168   0.007851  -0.022278
   18  C  2  Z    0.000000   0.000000   0.000000   0.000000   0.000000
   19  C  3  S   -0.036697  -0.038616   0.021409  -0.047152   0.561978
   20  C  3  S   -0.007531  -0.007159   0.002733  -0.006427   0.064715
   21  C  3  X    0.001241   0.000308  -0.000448   0.000142   0.000978
   22  C  3  Y    0.001172   0.001305   0.000176   0.000269  -0.001343
   23  C  3  Z    0.000000   0.000000   0.000000   0.000000   0.000000
   24  C  3  S    0.037140   0.020695  -0.008272   0.011696  -0.070687
   25  C  3  X   -0.004093  -0.005599   0.001549  -0.002509  -0.006272
   26  C  3  Y   -0.021879  -0.007758   0.001894  -0.006695   0.017876
   27  C  3  Z    0.000000   0.000000   0.000000   0.000000   0.000000
   28  C  4  S    0.036697  -0.038616  -0.021409  -0.047152   0.561978
   29  C  4  S    0.007531  -0.007159  -0.002733  -0.006427   0.064715
   30  C  4  X    0.001241  -0.000308  -0.000448  -0.000142  -0.000978
   31  C  4  Y    0.001172  -0.001305   0.000176  -0.000269   0.001343
   32  C  4  Z    0.000000   0.000000   0.000000   0.000000   0.000000
   33  C  4  S   -0.037140   0.020695   0.008272   0.011696  -0.070687
   34  C  4  X   -0.004093   0.005599   0.001549   0.002509   0.006272
   35  C  4  Y   -0.021879   0.007758   0.001894   0.006695  -0.017876
   36  C  4  Z    0.000000   0.000000   0.000000   0.000000   0.000000
   37  C  5  S    0.034923  -0.035773  -0.019829  -0.022463  -0.412143
   38  C  5  S    0.007382  -0.006732  -0.002308  -0.002763  -0.049279
   39  C  5  X    0.000822   0.000065  -0.000708  -0.000336   0.001568
   40  C  5  Y   -0.001520   0.001380   0.000387   0.000342   0.001155
   41  C  5  Z    0.000000   0.000000   0.000000   0.000000   0.000000
   42  C  5  S   -0.037640   0.019726   0.000089  -0.002788   0.061970
   43  C  5  X    0.002857   0.004077  -0.001854  -0.003098  -0.012414
   44  C  5  Y    0.022599  -0.010150   0.000013   0.001684  -0.014056
   45  C  5  Z    0.000000   0.000000   0.000000   0.000000   0.000000
   46  C  6  S   -0.034923  -0.035773   0.019829  -0.022463  -0.412143
   47  C  6  S   -0.007382  -0.006732   0.002308  -0.002763  -0.049279
   48  C  6  X    0.000822  -0.000065  -0.000708   0.000336  -0.001568
   49  C  6  Y   -0.001520  -0.001380   0.000387  -0.000342  -0.001155
   50  C  6  Z    0.000000   0.000000   0.000000   0.000000   0.000000
   51  C  6  S    0.037640   0.019726  -0.000089  -0.002788   0.061970
   52  C  6  X    0.002857  -0.004077  -0.001854   0.003098   0.012414
   53  C  6  Y    0.022599   0.010150   0.000013  -0.001684   0.014056
   54  C  6  Z    0.000000   0.000000   0.000000   0.000000   0.000000
   55  H  7  S    0.000205  -0.000672   0.000068   0.000329  -0.001422
   56  H  7  S    0.003026   0.000496   0.001137   0.000302   0.003280
   57  H  8  S   -0.000205  -0.000672  -0.000068   0.000329  -0.001422
   58  H  8  S   -0.003026   0.000496  -0.001137   0.000302   0.003280
   59  H  9  S   -0.000101  -0.000766   0.000304   0.000307   0.000993
   60  H  9  S   -0.003450   0.001022  -0.000351   0.000252  -0.001328
   61  H 10  S    0.000101  -0.000766  -0.000304   0.000307   0.000993
   62  H 10  S    0.003450   0.001022   0.000351   0.000252  -0.001328
   63  C 11  S    0.039021  -0.040950   0.695176   0.693819   0.023887
   64  C 11  S    0.006199  -0.006619   0.077047   0.076838   0.002093
   65  C 11  X   -0.000744   0.000680   0.000152   0.000234  -0.000064
   66  C 11  Y    0.000345  -0.000355   0.000862   0.000925  -0.000174
   67  C 11  Z    0.000000   0.000000   0.000000   0.000000   0.000000
   68  C 11  S   -0.014111   0.018567  -0.067444  -0.067430   0.000049
   69  C 11  X    0.006371  -0.008918   0.001589   0.000409   0.002942
   70  C 11  Y   -0.003334   0.004100  -0.012616  -0.013989   0.006451
   71  C 11  Z    0.000000   0.000000   0.000000   0.000000   0.000000
   72  C 12  S   -0.039021  -0.040950  -0.695176   0.693819   0.023887
   73  C 12  S   -0.006199  -0.006619  -0.077047   0.076838   0.002093
   74  C 12  X   -0.000744  -0.000680   0.000152  -0.000234   0.000064
   75  C 12  Y    0.000345   0.000355   0.000862  -0.000925   0.000174
   76  C 12  Z    0.000000   0.000000   0.000000   0.000000   0.000000
   77  C 12  S    0.014111   0.018567   0.067444  -0.067430   0.000049
   78  C 12  X    0.006371   0.008918   0.001589  -0.000409  -0.002942
   79  C 12  Y   -0.003334  -0.004100  -0.012616   0.013989  -0.006451
   80  C 12  Z    0.000000   0.000000   0.000000   0.000000   0.000000
   81  H 13  S    0.000320  -0.000349  -0.001677  -0.001801   0.000634
   82  H 13  S   -0.000084   0.000297   0.006808   0.006300   0.001770
   83  H 14  S   -0.000320  -0.000349   0.001677  -0.001801   0.000634
   84  H 14  S    0.000084   0.000297  -0.006808   0.006300   0.001770
   85  C 15  S    0.001479  -0.001726  -0.023033  -0.023073  -0.004334
   86  C 15  S    0.000150  -0.000235  -0.006063  -0.006092  -0.000838
   87  C 15  X   -0.000300   0.000308   0.001725   0.001653   0.000676
   88  C 15  Y   -0.000128   0.000174   0.001221   0.001196   0.000214
   89  C 15  Z    0.000000   0.000000   0.000000   0.000000   0.000000
   90  C 15  S    0.002223  -0.002089   0.026110   0.027391  -0.004078
   91  C 15  X   -0.002021   0.002359  -0.012988  -0.013253  -0.000326
   92  C 15  Y    0.000552  -0.001025  -0.004947  -0.005374   0.000952
   93  C 15  Z    0.000000   0.000000   0.000000   0.000000   0.000000
   94  C 16  S   -0.001479  -0.001726   0.023033  -0.023073  -0.004334
   95  C 16  S   -0.000150  -0.000235   0.006063  -0.006092  -0.000838
   96  C 16  X   -0.000300  -0.000308   0.001725  -0.001653  -0.000676
   97  C 16  Y   -0.000128  -0.000174   0.001221  -0.001196  -0.000214
   98  C 16  Z    0.000000   0.000000   0.000000   0.000000   0.000000
   99  C 16  S   -0.002223  -0.002089  -0.026110   0.027391  -0.004078
  100  C 16  X   -0.002021  -0.002359  -0.012988   0.013253   0.000326
  101  C 16  Y    0.000552   0.001025  -0.004947   0.005374  -0.000952
  102  C 16  Z    0.000000   0.000000   0.000000   0.000000   0.000000
  103  H 17  S   -0.000365   0.000472  -0.001440  -0.001420  -0.000232
  104  H 17  S   -0.000100   0.000226  -0.001318  -0.001369   0.000781
  105  H 18  S    0.000365   0.000472   0.001440  -0.001420  -0.000232
  106  H 18  S    0.000100   0.000226   0.001318  -0.001369   0.000781
  107  H 19  S    0.000173  -0.000242  -0.000286  -0.000343   0.000218
  108  H 19  S    0.000205  -0.000319   0.001992   0.001936   0.000905
  109  H 20  S   -0.000173  -0.000242   0.000286  -0.000343   0.000218
  110  H 20  S   -0.000205  -0.000319  -0.001992   0.001936   0.000905

                      6          7          8          9         10
                  -10.1251   -10.1239   -10.1235   -10.1136   -10.1136
                     BU         BU         AG         BU         AG  
    1  C  1  S    0.050156  -0.010607   0.053907  -0.002945   0.003663
    2  C  1  S    0.000676  -0.000018   0.001900  -0.000155   0.000151
    3  C  1  X   -0.001257  -0.000080  -0.002514  -0.000560   0.000557
    4  C  1  Y   -0.000288  -0.002361   0.000895  -0.000360   0.000378
    5  C  1  Z    0.000000   0.000000   0.000000   0.000000   0.000000
    6  C  1  S    0.049550  -0.011659   0.016270   0.001070  -0.001195
    7  C  1  X    0.037513  -0.006983   0.018665   0.000352  -0.002053
    8  C  1  Y   -0.003880   0.014272  -0.010700   0.001435  -0.003872
    9  C  1  Z    0.000000   0.000000   0.000000   0.000000   0.000000
   10  C  2  S   -0.050156   0.010607   0.053907   0.002945   0.003663
   11  C  2  S   -0.000676   0.000018   0.001900   0.000155   0.000151
   12  C  2  X   -0.001257  -0.000080   0.002514  -0.000560  -0.000557
   13  C  2  Y   -0.000288  -0.002361  -0.000895  -0.000360  -0.000378
   14  C  2  Z    0.000000   0.000000   0.000000   0.000000   0.000000
   15  C  2  S   -0.049550   0.011659   0.016270  -0.001070  -0.001195
   16  C  2  X    0.037513  -0.006983  -0.018665   0.000352   0.002053
   17  C  2  Y   -0.003880   0.014272   0.010700   0.001435   0.003872
   18  C  2  Z    0.000000   0.000000   0.000000   0.000000   0.000000
   19  C  3  S    0.592521   0.365398   0.408026  -0.001517   0.006330
   20  C  3  S    0.068776   0.038109   0.041751   0.000017  -0.000059
   21  C  3  X    0.001515  -0.001353  -0.000694  -0.000395   0.000194
   22  C  3  Y   -0.000982  -0.000686   0.000809  -0.000002   0.000175
   23  C  3  Z    0.000000   0.000000   0.000000   0.000000   0.000000
   24  C  3  S   -0.094832  -0.009321  -0.017450   0.000671   0.003041
   25  C  3  X   -0.019001   0.010622   0.003555   0.004610  -0.003768
   26  C  3  Y    0.031800  -0.003285   0.000877  -0.000073  -0.003055
   27  C  3  Z    0.000000   0.000000   0.000000   0.000000   0.000000
   28  C  4  S   -0.592521  -0.365398   0.408026   0.001517   0.006330
   29  C  4  S   -0.068776  -0.038109   0.041751  -0.000017  -0.000059
   30  C  4  X    0.001515  -0.001353   0.000694  -0.000395  -0.000194
   31  C  4  Y   -0.000982  -0.000686  -0.000809  -0.000002  -0.000175
   32  C  4  Z    0.000000   0.000000   0.000000   0.000000   0.000000
   33  C  4  S    0.094832   0.009321  -0.017450  -0.000671   0.003041
   34  C  4  X   -0.019001   0.010622  -0.003555   0.004610   0.003768
   35  C  4  Y    0.031800  -0.003285  -0.000877  -0.000073   0.003055
   36  C  4  Z    0.000000   0.000000   0.000000   0.000000   0.000000
   37  C  5  S   -0.364013   0.593551   0.560808   0.000891   0.002924
   38  C  5  S   -0.044238   0.065136   0.060098   0.000233   0.000160
   39  C  5  X    0.002068   0.000123   0.000261  -0.000303  -0.000221
   40  C  5  Y   -0.000142  -0.001091   0.000233  -0.000032  -0.000170
   41  C  5  Z    0.000000   0.000000   0.000000   0.000000   0.000000
   42  C  5  S    0.081181  -0.052476  -0.044465  -0.003444   0.000372
   43  C  5  X   -0.029658   0.003488   0.000856   0.002748  -0.001051
   44  C  5  Y   -0.021853   0.010765   0.009588   0.000241   0.002873
   45  C  5  Z    0.000000   0.000000   0.000000   0.000000   0.000000
   46  C  6  S    0.364013  -0.593551   0.560808  -0.000891   0.002924
   47  C  6  S    0.044238  -0.065136   0.060098  -0.000233   0.000160
   48  C  6  X    0.002068   0.000123  -0.000261  -0.000303   0.000221
   49  C  6  Y   -0.000142  -0.001091  -0.000233  -0.000032   0.000170
   50  C  6  Z    0.000000   0.000000   0.000000   0.000000   0.000000
   51  C  6  S   -0.081181   0.052476  -0.044465   0.003444   0.000372
   52  C  6  X   -0.029658   0.003488  -0.000856   0.002748   0.001051
   53  C  6  Y   -0.021853   0.010765  -0.009588   0.000241  -0.002873
   54  C  6  Z    0.000000   0.000000   0.000000   0.000000   0.000000
   55  H  7  S   -0.002330  -0.000833  -0.001466   0.000328  -0.000232
   56  H  7  S   -0.000657   0.005872   0.005402   0.000308   0.000905
   57  H  8  S    0.002330   0.000833  -0.001466  -0.000328  -0.000232
   58  H  8  S    0.000657  -0.005872   0.005402  -0.000308   0.000905
   59  H  9  S    0.001752  -0.001881  -0.001985   0.000078  -0.000132
   60  H  9  S    0.002956   0.005384   0.006074  -0.001393  -0.001502
   61  H 10  S   -0.001752   0.001881  -0.001985  -0.000078  -0.000132
   62  H 10  S   -0.002956  -0.005384   0.006074   0.001393  -0.001502
   63  C 11  S   -0.025799   0.005142   0.042522   0.022794   0.023297
   64  C 11  S   -0.002366   0.000444   0.003256  -0.000925  -0.000871
   65  C 11  X    0.000149  -0.000159   0.000731  -0.002050  -0.001928
   66  C 11  Y   -0.000118  -0.000510   0.000021  -0.001806  -0.001767
   67  C 11  Z    0.000000   0.000000   0.000000   0.000000   0.000000
   68  C 11  S   -0.009415   0.003516   0.003703   0.020212   0.018929
   69  C 11  X    0.005384  -0.000745  -0.011061   0.009625   0.009068
   70  C 11  Y   -0.001192   0.001119  -0.002400   0.008308   0.007015
   71  C 11  Z    0.000000   0.000000   0.000000   0.000000   0.000000
   72  C 12  S    0.025799  -0.005142   0.042522  -0.022794   0.023297
   73  C 12  S    0.002366  -0.000444   0.003256   0.000925  -0.000871
   74  C 12  X    0.000149  -0.000159  -0.000731  -0.002050   0.001928
   75  C 12  Y   -0.000118  -0.000510  -0.000021  -0.001806   0.001767
   76  C 12  Z    0.000000   0.000000   0.000000   0.000000   0.000000
   77  C 12  S    0.009415  -0.003516   0.003703  -0.020212   0.018929
   78  C 12  X    0.005384  -0.000745   0.011061   0.009625  -0.009068
   79  C 12  Y   -0.001192   0.001119   0.002400   0.008308  -0.007015
   80  C 12  Z    0.000000   0.000000   0.000000   0.000000   0.000000
   81  H 13  S    0.000171   0.000039  -0.000695  -0.000742  -0.000833
   82  H 13  S   -0.000075   0.000661   0.000775   0.001008   0.000693
   83  H 14  S   -0.000171  -0.000039  -0.000695   0.000742  -0.000833
   84  H 14  S    0.000075  -0.000661   0.000775  -0.001008   0.000693
   85  C 15  S    0.002838  -0.000105  -0.007920   0.696455   0.696390
   86  C 15  S    0.000629   0.000085  -0.001640   0.075420   0.075348
   87  C 15  X   -0.000148   0.000068   0.000283  -0.000101  -0.000095
   88  C 15  Y   -0.000163  -0.000062   0.000055  -0.000086  -0.000122
   89  C 15  Z    0.000000   0.000000   0.000000   0.000000   0.000000
   90  C 15  S   -0.001157  -0.000916   0.007410  -0.057245  -0.056084
   91  C 15  X   -0.000122   0.000998  -0.002076   0.005078   0.004366
   92  C 15  Y    0.000633   0.000662  -0.003203   0.004720   0.004375
   93  C 15  Z    0.000000   0.000000   0.000000   0.000000   0.000000
   94  C 16  S   -0.002838   0.000105  -0.007920  -0.696455   0.696390
   95  C 16  S   -0.000629  -0.000085  -0.001640  -0.075420   0.075348
   96  C 16  X   -0.000148   0.000068  -0.000283  -0.000101   0.000095
   97  C 16  Y   -0.000163  -0.000062  -0.000055  -0.000086   0.000122
   98  C 16  Z    0.000000   0.000000   0.000000   0.000000   0.000000
   99  C 16  S    0.001157   0.000916   0.007410   0.057245  -0.056084
  100  C 16  X   -0.000122   0.000998   0.002076   0.005078  -0.004366
  101  C 16  Y    0.000633   0.000662   0.003203   0.004720  -0.004375
  102  C 16  Z    0.000000   0.000000   0.000000   0.000000   0.000000
  103  H 17  S   -0.000137   0.000175   0.000008  -0.001449  -0.001539
  104  H 17  S    0.000375  -0.000901   0.000003   0.009990   0.010143
  105  H 18  S    0.000137  -0.000175   0.000008   0.001449  -0.001539
  106  H 18  S   -0.000375   0.000901   0.000003  -0.009990   0.010143
  107  H 19  S    0.000124  -0.000058  -0.000380  -0.001310  -0.001313
  108  H 19  S   -0.000016  -0.000150   0.000238   0.009842   0.010007
  109  H 20  S   -0.000124   0.000058  -0.000380   0.001310  -0.001313
  110  H 20  S    0.000016   0.000150   0.000238  -0.009842   0.010007

                     11         12         13         14         15
                   -0.8697    -0.8064    -0.7716    -0.7515    -0.7213
                     AG         BU         AG         BU         BU  
    1  C  1  S   -0.101586   0.098669  -0.007994  -0.013295  -0.093384
    2  C  1  S    0.110272  -0.105982   0.007846   0.014325   0.099911
    3  C  1  X    0.045893   0.021841  -0.077702   0.019439   0.050640
    4  C  1  Y   -0.007493  -0.000013   0.004920   0.102454  -0.014194
    5  C  1  Z    0.000000   0.000000   0.000000   0.000000   0.000000
    6  C  1  S    0.190349  -0.198756   0.018858   0.028914   0.231365
    7  C  1  X    0.002271   0.014260  -0.006588   0.001570  -0.005326
    8  C  1  Y    0.010468  -0.011444   0.014512   0.014288   0.000110
    9  C  1  Z    0.000000   0.000000   0.000000   0.000000   0.000000
   10  C  2  S   -0.101586  -0.098669  -0.007994   0.013295   0.093384
   11  C  2  S    0.110272   0.105982   0.007846  -0.014325  -0.099911
   12  C  2  X   -0.045893   0.021841   0.077702   0.019439   0.050640
   13  C  2  Y    0.007493  -0.000013  -0.004920   0.102454  -0.014194
   14  C  2  Z    0.000000   0.000000   0.000000   0.000000   0.000000
   15  C  2  S    0.190349   0.198756   0.018858  -0.028914  -0.231365
   16  C  2  X   -0.002271   0.014260   0.006588   0.001570  -0.005326
   17  C  2  Y   -0.010468  -0.011444  -0.014512   0.014288   0.000110
   18  C  2  Z    0.000000   0.000000   0.000000   0.000000   0.000000
   19  C  3  S   -0.092735   0.037314   0.039473  -0.125049  -0.036836
   20  C  3  S    0.102417  -0.039400  -0.040781   0.133353   0.038110
   21  C  3  X    0.015142   0.049967  -0.032209   0.047577  -0.072955
   22  C  3  Y   -0.054237   0.023777   0.016126  -0.005169  -0.035014
   23  C  3  Z    0.000000   0.000000   0.000000   0.000000   0.000000
   24  C  3  S    0.160102  -0.090374  -0.094433   0.288391   0.108182
   25  C  3  X    0.009494  -0.014418   0.001665   0.004499  -0.002071
   26  C  3  Y   -0.010979   0.012776   0.017407  -0.004161  -0.013038
   27  C  3  Z    0.000000   0.000000   0.000000   0.000000   0.000000
   28  C  4  S   -0.092735  -0.037314   0.039473   0.125049   0.036836
   29  C  4  S    0.102417   0.039400  -0.040781  -0.133353  -0.038110
   30  C  4  X   -0.015142   0.049967   0.032209   0.047577  -0.072955
   31  C  4  Y    0.054237   0.023777  -0.016126  -0.005169  -0.035014
   32  C  4  Z    0.000000   0.000000   0.000000   0.000000   0.000000
   33  C  4  S    0.160102   0.090374  -0.094433  -0.288391  -0.108182
   34  C  4  X   -0.009494  -0.014418  -0.001665   0.004499  -0.002071
   35  C  4  Y    0.010979   0.012776  -0.017407  -0.004161  -0.013038
   36  C  4  Z    0.000000   0.000000   0.000000   0.000000   0.000000
   37  C  5  S   -0.092584  -0.042012   0.034534  -0.111912   0.069695
   38  C  5  S    0.101221   0.043437  -0.036880   0.119448  -0.073855
   39  C  5  X   -0.031828   0.038661   0.041142  -0.058872  -0.033360
   40  C  5  Y   -0.046662  -0.038512   0.003933   0.022523   0.047793
   41  C  5  Z    0.000000   0.000000   0.000000   0.000000   0.000000
   42  C  5  S    0.171680   0.113798  -0.074124   0.256858  -0.182304
   43  C  5  X   -0.008787  -0.011634   0.021218  -0.007272   0.012200
   44  C  5  Y   -0.016499  -0.012516  -0.002677   0.001515   0.008777
   45  C  5  Z    0.000000   0.000000   0.000000   0.000000   0.000000
   46  C  6  S   -0.092584   0.042012   0.034534   0.111912  -0.069695
   47  C  6  S    0.101221  -0.043437  -0.036880  -0.119448   0.073855
   48  C  6  X    0.031828   0.038661  -0.041142  -0.058872  -0.033360
   49  C  6  Y    0.046662  -0.038512  -0.003933   0.022523   0.047793
   50  C  6  Z    0.000000   0.000000   0.000000   0.000000   0.000000
   51  C  6  S    0.171680  -0.113798  -0.074124  -0.256858   0.182304
   52  C  6  X    0.008787  -0.011634  -0.021218  -0.007272   0.012200
   53  C  6  Y    0.016499  -0.012516   0.002677   0.001515   0.008777
   54  C  6  Z    0.000000   0.000000   0.000000   0.000000   0.000000
   55  H  7  S    0.031917  -0.019710  -0.013003   0.065927   0.019575
   56  H  7  S   -0.000976  -0.010012  -0.001119   0.012033   0.005060
   57  H  8  S    0.031917   0.019710  -0.013003  -0.065927  -0.019575
   58  H  8  S   -0.000976   0.010012  -0.001119  -0.012033  -0.005060
   59  H  9  S    0.031981   0.021808  -0.009011   0.059573  -0.035823
   60  H  9  S   -0.000638   0.010315   0.004518   0.010190  -0.004022
   61  H 10  S    0.031981  -0.021808  -0.009011  -0.059573   0.035823
   62  H 10  S   -0.000638  -0.010315   0.004518  -0.010190   0.004022
   63  C 11  S   -0.040830  -0.105739  -0.115450  -0.000678  -0.054545
   64  C 11  S    0.045274   0.114290   0.124238   0.000952   0.058700
   65  C 11  X   -0.020615  -0.001525   0.050105   0.017074   0.104609
   66  C 11  Y    0.011402   0.035277   0.047095   0.021744   0.037649
   67  C 11  Z    0.000000   0.000000   0.000000   0.000000   0.000000
   68  C 11  S    0.070239   0.211220   0.256174  -0.002533   0.137342
   69  C 11  X    0.007428  -0.002146   0.001300   0.003409   0.015634
   70  C 11  Y    0.004865   0.007050   0.013815   0.004461   0.010771
   71  C 11  Z    0.000000   0.000000   0.000000   0.000000   0.000000
   72  C 12  S   -0.040830   0.105739  -0.115450   0.000678   0.054545
   73  C 12  S    0.045274  -0.114290   0.124238  -0.000952  -0.058700
   74  C 12  X    0.020615  -0.001525  -0.050105   0.017074   0.104609
   75  C 12  Y   -0.011402   0.035277  -0.047095   0.021744   0.037649
   76  C 12  Z    0.000000   0.000000   0.000000   0.000000   0.000000
   77  C 12  S    0.070239  -0.211220   0.256174   0.002533  -0.137342
   78  C 12  X   -0.007428  -0.002146  -0.001300   0.003409   0.015634
   79  C 12  Y   -0.004865   0.007050  -0.013815   0.004461   0.010771
   80  C 12  Z    0.000000   0.000000   0.000000   0.000000   0.000000
   81  H 13  S    0.017178   0.046923   0.053658  -0.006518   0.027448
   82  H 13  S    0.000176   0.003581   0.006713  -0.006576   0.004137
   83  H 14  S    0.017178  -0.046923   0.053658   0.006518  -0.027448
   84  H 14  S    0.000176  -0.003581   0.006713   0.006576  -0.004137
   85  C 15  S   -0.019443  -0.074320  -0.109360  -0.014297  -0.101208
   86  C 15  S    0.022403   0.081350   0.118520   0.014584   0.108558
   87  C 15  X   -0.017056  -0.047937  -0.055299  -0.006460  -0.027265
   88  C 15  Y   -0.009086  -0.034681  -0.048993  -0.001069  -0.039574
   89  C 15  Z    0.000000   0.000000   0.000000   0.000000   0.000000
   90  C 15  S    0.026969   0.147662   0.232971   0.035049   0.239804
   91  C 15  X    0.001959  -0.003563  -0.002338  -0.006801   0.002868
   92  C 15  Y    0.002039  -0.005188  -0.009659  -0.001342  -0.010822
   93  C 15  Z    0.000000   0.000000   0.000000   0.000000   0.000000
   94  C 16  S   -0.019443   0.074320  -0.109360   0.014297   0.101208
   95  C 16  S    0.022403  -0.081350   0.118520  -0.014584  -0.108558
   96  C 16  X    0.017056  -0.047937   0.055299  -0.006460  -0.027265
   97  C 16  Y    0.009086  -0.034681   0.048993  -0.001069  -0.039574
   98  C 16  Z    0.000000   0.000000   0.000000   0.000000   0.000000
   99  C 16  S    0.026969  -0.147662   0.232971  -0.035049  -0.239804
  100  C 16  X   -0.001959  -0.003563   0.002338  -0.006801   0.002868
  101  C 16  Y   -0.002039  -0.005188   0.009659  -0.001342  -0.010822
  102  C 16  Z    0.000000   0.000000   0.000000   0.000000   0.000000
  103  H 17  S    0.008694   0.032909   0.049690   0.009144   0.049039
  104  H 17  S    0.002111   0.003567   0.003481   0.005420   0.003746
  105  H 18  S    0.008694  -0.032909   0.049690  -0.009144  -0.049039
  106  H 18  S    0.002111  -0.003567   0.003481  -0.005420  -0.003746
  107  H 19  S    0.006431   0.029200   0.048825   0.006233   0.055570
  108  H 19  S   -0.002963  -0.002852   0.000417   0.002485   0.007787
  109  H 20  S    0.006431  -0.029200   0.048825  -0.006233  -0.055570
  110  H 20  S   -0.002963   0.002852   0.000417  -0.002485  -0.007787

                     16         17         18         19         20
                   -0.6368    -0.6095    -0.5726    -0.5594    -0.5075
                     AG         AG         BU         AG         AG  
    1  C  1  S    0.068750   0.054772  -0.010559   0.040870   0.031486
    2  C  1  S   -0.072365  -0.057694   0.011962  -0.045423  -0.031861
    3  C  1  X    0.052655   0.050086   0.110426  -0.123119   0.083694
    4  C  1  Y   -0.107471   0.150110  -0.050325  -0.014464  -0.040635
    5  C  1  Z    0.000000   0.000000   0.000000   0.000000   0.000000
    6  C  1  S   -0.201039  -0.170724   0.031890  -0.125079  -0.119669
    7  C  1  X    0.011313   0.012105   0.032253  -0.078265   0.062089
    8  C  1  Y   -0.034383   0.046364  -0.030951   0.004171  -0.017210
    9  C  1  Z    0.000000   0.000000   0.000000   0.000000   0.000000
   10  C  2  S    0.068750   0.054772   0.010559   0.040870   0.031486
   11  C  2  S   -0.072365  -0.057694  -0.011962  -0.045423  -0.031861
   12  C  2  X   -0.052655  -0.050086   0.110426   0.123119  -0.083694
   13  C  2  Y    0.107471  -0.150110  -0.050325   0.014464   0.040635
   14  C  2  Z    0.000000   0.000000   0.000000   0.000000   0.000000
   15  C  2  S   -0.201039  -0.170724  -0.031890  -0.125079  -0.119669
   16  C  2  X   -0.011313  -0.012105   0.032253   0.078265  -0.062089
   17  C  2  Y    0.034383  -0.046364  -0.030951  -0.004171   0.017210
   18  C  2  Z    0.000000   0.000000   0.000000   0.000000   0.000000
   19  C  3  S    0.006770  -0.103239  -0.045083  -0.008586   0.015316
   20  C  3  S   -0.007219   0.106877   0.047320   0.007613  -0.012984
   21  C  3  X    0.138782  -0.016600   0.006708   0.063671   0.104530
   22  C  3  Y    0.026343   0.053253  -0.010883   0.143915  -0.085524
   23  C  3  Z    0.000000   0.000000   0.000000   0.000000   0.000000
   24  C  3  S   -0.018079   0.327193   0.151298   0.031534  -0.072759
   25  C  3  X    0.053724  -0.007299   0.016742   0.012569   0.046441
   26  C  3  Y    0.008152   0.007554  -0.008133   0.078870  -0.056046
   27  C  3  Z    0.000000   0.000000   0.000000   0.000000   0.000000
   28  C  4  S    0.006770  -0.103239   0.045083  -0.008586   0.015316
   29  C  4  S   -0.007219   0.106877  -0.047320   0.007613  -0.012984
   30  C  4  X   -0.138782   0.016600   0.006708  -0.063671  -0.104530
   31  C  4  Y   -0.026343  -0.053253  -0.010883  -0.143915   0.085524
   32  C  4  Z    0.000000   0.000000   0.000000   0.000000   0.000000
   33  C  4  S   -0.018079   0.327193  -0.151298   0.031534  -0.072759
   34  C  4  X   -0.053724   0.007299   0.016742  -0.012569  -0.046441
   35  C  4  Y   -0.008152  -0.007554  -0.008133  -0.078870   0.056046
   36  C  4  Z    0.000000   0.000000   0.000000   0.000000   0.000000
   37  C  5  S   -0.079895   0.049615   0.026152  -0.049440  -0.016500
   38  C  5  S    0.083653  -0.051389  -0.027165   0.048645   0.018685
   39  C  5  X   -0.025952  -0.137704  -0.061321   0.029228  -0.092843
   40  C  5  Y    0.045843   0.080681   0.039347   0.150993  -0.054517
   41  C  5  Z    0.000000   0.000000   0.000000   0.000000   0.000000
   42  C  5  S    0.231002  -0.158803  -0.089511   0.184360   0.055997
   43  C  5  X   -0.006463  -0.044192  -0.014352   0.017056  -0.059753
   44  C  5  Y    0.001362   0.036105   0.015641   0.074920  -0.039215
   45  C  5  Z    0.000000   0.000000   0.000000   0.000000   0.000000
   46  C  6  S   -0.079895   0.049615  -0.026152  -0.049440  -0.016500
   47  C  6  S    0.083653  -0.051389   0.027165   0.048645   0.018685
   48  C  6  X    0.025952   0.137704  -0.061321  -0.029228   0.092843
   49  C  6  Y   -0.045843  -0.080681   0.039347  -0.150993   0.054517
   50  C  6  Z    0.000000   0.000000   0.000000   0.000000   0.000000
   51  C  6  S    0.231002  -0.158803   0.089511   0.184360   0.055997
   52  C  6  X    0.006463   0.044192  -0.014352  -0.017056   0.059753
   53  C  6  Y   -0.001362  -0.036105   0.015641  -0.074920   0.039215
   54  C  6  Z    0.000000   0.000000   0.000000   0.000000   0.000000
   55  H  7  S   -0.015894   0.100767   0.027009   0.064115  -0.075303
   56  H  7  S   -0.009291   0.048636   0.006310   0.039649  -0.044625
   57  H  8  S   -0.015894   0.100767  -0.027009   0.064115  -0.075303
   58  H  8  S   -0.009291   0.048636  -0.006310   0.039649  -0.044625
   59  H  9  S    0.066366  -0.046272  -0.028109   0.105390  -0.046568
   60  H  9  S    0.033371  -0.020319  -0.020597   0.055019  -0.039647
   61  H 10  S    0.066366  -0.046272   0.028109   0.105390  -0.046568
   62  H 10  S    0.033371  -0.020319   0.020597   0.055019  -0.039647
   63  C 11  S    0.042799   0.004279  -0.089955  -0.051193  -0.046979
   64  C 11  S   -0.043895  -0.003567   0.092977   0.055071   0.047105
   65  C 11  X    0.106949   0.066480  -0.043462  -0.025338   0.135772
   66  C 11  Y    0.062069  -0.033075  -0.086338  -0.039656  -0.078945
   67  C 11  Z    0.000000   0.000000   0.000000   0.000000   0.000000
   68  C 11  S   -0.133229  -0.019032   0.300154   0.157149   0.178016
   69  C 11  X    0.040125   0.014927  -0.018672  -0.001539   0.068044
   70  C 11  Y    0.026020  -0.032583  -0.036662  -0.016889  -0.042694
   71  C 11  Z    0.000000   0.000000   0.000000   0.000000   0.000000
   72  C 12  S    0.042799   0.004279   0.089955  -0.051193  -0.046979
   73  C 12  S   -0.043895  -0.003567  -0.092977   0.055071   0.047105
   74  C 12  X   -0.106949  -0.066480  -0.043462   0.025338  -0.135772
   75  C 12  Y   -0.062069   0.033075  -0.086338   0.039656   0.078945
   76  C 12  Z    0.000000   0.000000   0.000000   0.000000   0.000000
   77  C 12  S   -0.133229  -0.019032  -0.300154   0.157149   0.178016
   78  C 12  X   -0.040125  -0.014927  -0.018672   0.001539  -0.068044
   79  C 12  Y   -0.026020   0.032583  -0.036662   0.016889   0.042694
   80  C 12  Z    0.000000   0.000000   0.000000   0.000000   0.000000
   81  H 13  S   -0.046154   0.020137   0.104995   0.059027   0.096173
   82  H 13  S   -0.019120   0.012745   0.050059   0.031854   0.057227
   83  H 14  S   -0.046154   0.020137  -0.104995   0.059027   0.096173
   84  H 14  S   -0.019120   0.012745  -0.050059   0.031854   0.057227
   85  C 15  S   -0.074296  -0.036814   0.078385   0.051935   0.025743
   86  C 15  S    0.077409   0.038358  -0.079474  -0.052862  -0.023690
   87  C 15  X    0.017024   0.029719  -0.063208  -0.054761  -0.020086
   88  C 15  Y    0.012197  -0.016320  -0.084271  -0.044478  -0.162538
   89  C 15  Z    0.000000   0.000000   0.000000   0.000000   0.000000
   90  C 15  S    0.208947   0.120713  -0.261284  -0.177140  -0.112824
   91  C 15  X    0.002030   0.016110  -0.015764  -0.027346   0.007001
   92  C 15  Y    0.006150  -0.011632  -0.038514  -0.018644  -0.090195
   93  C 15  Z    0.000000   0.000000   0.000000   0.000000   0.000000
   94  C 16  S   -0.074296  -0.036814  -0.078385   0.051935   0.025743
   95  C 16  S    0.077409   0.038358   0.079474  -0.052862  -0.023690
   96  C 16  X   -0.017024  -0.029719  -0.063208   0.054761   0.020086
   97  C 16  Y   -0.012197   0.016320  -0.084271   0.044478   0.162538
   98  C 16  Z    0.000000   0.000000   0.000000   0.000000   0.000000
   99  C 16  S    0.208947   0.120713   0.261284  -0.177140  -0.112824
  100  C 16  X   -0.002030  -0.016110  -0.015764   0.027346  -0.007001
  101  C 16  Y   -0.006150   0.011632  -0.038514   0.018644   0.090195
  102  C 16  Z    0.000000   0.000000   0.000000   0.000000   0.000000
  103  H 17  S    0.057762   0.015545  -0.097746  -0.055541  -0.111446
  104  H 17  S    0.022984  -0.001495  -0.051809  -0.022679  -0.077322
  105  H 18  S    0.057762   0.015545   0.097746  -0.055541  -0.111446
  106  H 18  S    0.022984  -0.001495   0.051809  -0.022679  -0.077322
  107  H 19  S    0.056584   0.041073  -0.078173  -0.060511  -0.008378
  108  H 19  S    0.022758   0.015749  -0.041675  -0.030248  -0.006965
  109  H 20  S    0.056584   0.041073   0.078173  -0.060511  -0.008378
  110  H 20  S    0.022758   0.015749   0.041675  -0.030248  -0.006965

                     21         22         23         24         25
                   -0.4919    -0.4569    -0.4486    -0.4451    -0.4250
                     BU         BU         BU         AG         BU  
    1  C  1  S   -0.011871  -0.031018  -0.059470  -0.016194   0.001926
    2  C  1  S    0.012536   0.032322   0.061011   0.014926  -0.001799
    3  C  1  X   -0.104585  -0.087638   0.095325   0.000397  -0.072793
    4  C  1  Y   -0.131846   0.154328  -0.062668  -0.000015  -0.082063
    5  C  1  Z    0.000000   0.000000   0.000000   0.000000   0.000000
    6  C  1  S    0.048677   0.122596   0.254082   0.071867  -0.013926
    7  C  1  X   -0.045615  -0.046816   0.065526  -0.016308  -0.036153
    8  C  1  Y   -0.082009   0.083791  -0.027553   0.023038  -0.003603
    9  C  1  Z    0.000000   0.000000   0.000000   0.000000   0.000000
   10  C  2  S    0.011871   0.031018   0.059470  -0.016194  -0.001926
   11  C  2  S   -0.012536  -0.032322  -0.061011   0.014926   0.001799
   12  C  2  X   -0.104585  -0.087638   0.095325  -0.000397  -0.072793
   13  C  2  Y   -0.131846   0.154328  -0.062668   0.000015  -0.082063
   14  C  2  Z    0.000000   0.000000   0.000000   0.000000   0.000000
   15  C  2  S   -0.048677  -0.122596  -0.254082   0.071867   0.013926
   16  C  2  X   -0.045615  -0.046816   0.065526   0.016308  -0.036153
   17  C  2  Y   -0.082009   0.083791  -0.027553  -0.023038  -0.003603
   18  C  2  Z    0.000000   0.000000   0.000000   0.000000   0.000000
   19  C  3  S    0.014026   0.034473   0.033471   0.024171   0.025880
   20  C  3  S   -0.014076  -0.034157  -0.032215  -0.024814  -0.030670
   21  C  3  X    0.166332  -0.073830   0.031193  -0.045050  -0.084958
   22  C  3  Y    0.026873  -0.103794  -0.124653  -0.001208   0.229181
   23  C  3  Z    0.000000   0.000000   0.000000   0.000000   0.000000
   24  C  3  S   -0.057653  -0.142677  -0.143658  -0.103568  -0.095056
   25  C  3  X    0.082474  -0.044052   0.052505  -0.030164  -0.044527
   26  C  3  Y    0.015835  -0.058844  -0.060027   0.007884   0.158968
   27  C  3  Z    0.000000   0.000000   0.000000   0.000000   0.000000
   28  C  4  S   -0.014026  -0.034473  -0.033471   0.024171  -0.025880
   29  C  4  S    0.014076   0.034157   0.032215  -0.024814   0.030670
   30  C  4  X    0.166332  -0.073830   0.031193   0.045050  -0.084958
   31  C  4  Y    0.026873  -0.103794  -0.124653   0.001208   0.229181
   32  C  4  Z    0.000000   0.000000   0.000000   0.000000   0.000000
   33  C  4  S    0.057653   0.142677   0.143658  -0.103568   0.095056
   34  C  4  X    0.082474  -0.044052   0.052505   0.030164  -0.044527
   35  C  4  Y    0.015835  -0.058844  -0.060027  -0.007884   0.158968
   36  C  4  Z    0.000000   0.000000   0.000000   0.000000   0.000000
   37  C  5  S   -0.030599  -0.042596  -0.026235  -0.020932   0.015792
   38  C  5  S    0.031410   0.043852   0.023852   0.017946  -0.019543
   39  C  5  X   -0.114837   0.108044   0.060367   0.089822   0.144898
   40  C  5  Y    0.078530  -0.071395   0.193379   0.019569   0.141090
   41  C  5  Z    0.000000   0.000000   0.000000   0.000000   0.000000
   42  C  5  S    0.114707   0.166523   0.114821   0.103262  -0.055199
   43  C  5  X   -0.063313   0.054100   0.062264   0.042560   0.070441
   44  C  5  Y    0.033968  -0.037049   0.095402   0.010174   0.116738
   45  C  5  Z    0.000000   0.000000   0.000000   0.000000   0.000000
   46  C  6  S    0.030599   0.042596   0.026235  -0.020932  -0.015792
   47  C  6  S   -0.031410  -0.043852  -0.023852   0.017946   0.019543
   48  C  6  X   -0.114837   0.108044   0.060367  -0.089822   0.144898
   49  C  6  Y    0.078530  -0.071395   0.193379  -0.019569   0.141090
   50  C  6  Z    0.000000   0.000000   0.000000   0.000000   0.000000
   51  C  6  S   -0.114707  -0.166523  -0.114821   0.103262   0.055199
   52  C  6  X   -0.063313   0.054100   0.062264  -0.042560   0.070441
   53  C  6  Y    0.033968  -0.037049   0.095402  -0.010174   0.116738
   54  C  6  Z    0.000000   0.000000   0.000000   0.000000   0.000000
   55  H  7  S   -0.035015  -0.079650  -0.115824  -0.010560   0.137563
   56  H  7  S   -0.027763  -0.060658  -0.090214  -0.000422   0.126540
   57  H  8  S    0.035015   0.079650   0.115824  -0.010560  -0.137563
   58  H  8  S    0.027763   0.060658   0.090214  -0.000422  -0.126540
   59  H  9  S    0.019500   0.043773   0.151516   0.061458   0.117231
   60  H  9  S    0.008287   0.017421   0.124816   0.044344   0.103463
   61  H 10  S   -0.019500  -0.043773  -0.151516   0.061458  -0.117231
   62  H 10  S   -0.008287  -0.017421  -0.124816   0.044344  -0.103463
   63  C 11  S    0.017446  -0.005853  -0.006295   0.022204  -0.003135
   64  C 11  S   -0.019906   0.007433   0.006887  -0.026822   0.004346
   65  C 11  X    0.056610   0.175629  -0.032360  -0.056075   0.064189
   66  C 11  Y   -0.149467  -0.004866   0.000391  -0.198650   0.005544
   67  C 11  Z    0.000000   0.000000   0.000000   0.000000   0.000000
   68  C 11  S   -0.058428   0.014384   0.020268  -0.070041   0.004360
   69  C 11  X    0.031916   0.095081  -0.038670  -0.005805   0.039537
   70  C 11  Y   -0.098661  -0.007010  -0.000990  -0.119605  -0.005117
   71  C 11  Z    0.000000   0.000000   0.000000   0.000000   0.000000
   72  C 12  S   -0.017446   0.005853   0.006295   0.022204   0.003135
   73  C 12  S    0.019906  -0.007433  -0.006887  -0.026822  -0.004346
   74  C 12  X    0.056610   0.175629  -0.032360   0.056075   0.064189
   75  C 12  Y   -0.149467  -0.004866   0.000391   0.198650   0.005544
   76  C 12  Z    0.000000   0.000000   0.000000   0.000000   0.000000
   77  C 12  S    0.058428  -0.014384  -0.020268  -0.070041  -0.004360
   78  C 12  X    0.031916   0.095081  -0.038670   0.005805   0.039537
   79  C 12  Y   -0.098661  -0.007010  -0.000990   0.119605  -0.005117
   80  C 12  Z    0.000000   0.000000   0.000000   0.000000   0.000000
   81  H 13  S    0.077126   0.033997   0.007499   0.093577   0.001753
   82  H 13  S    0.061059   0.030894   0.013759   0.083377  -0.010234
   83  H 14  S   -0.077126  -0.033997  -0.007499   0.093577  -0.001753
   84  H 14  S   -0.061059  -0.030894  -0.013759   0.083377   0.010234
   85  C 15  S   -0.015487   0.010319   0.006669   0.000459   0.003386
   86  C 15  S    0.013079  -0.007736  -0.007559  -0.006494  -0.001888
   87  C 15  X    0.147370  -0.020429  -0.060064   0.246036  -0.025745
   88  C 15  Y   -0.036838  -0.174846   0.074457   0.018768  -0.061909
   89  C 15  Z    0.000000   0.000000   0.000000   0.000000   0.000000
   90  C 15  S    0.073188  -0.057142  -0.014254   0.022427  -0.020438
   91  C 15  X    0.080061  -0.007328  -0.048533   0.140232  -0.018425
   92  C 15  Y   -0.034290  -0.109520   0.040219  -0.004277  -0.041814
   93  C 15  Z    0.000000   0.000000   0.000000   0.000000   0.000000
   94  C 16  S    0.015487  -0.010319  -0.006669   0.000459  -0.003386
   95  C 16  S   -0.013079   0.007736   0.007559  -0.006494   0.001888
   96  C 16  X    0.147370  -0.020429  -0.060064  -0.246036  -0.025745
   97  C 16  Y   -0.036838  -0.174846   0.074457  -0.018768  -0.061909
   98  C 16  Z    0.000000   0.000000   0.000000   0.000000   0.000000
   99  C 16  S   -0.073188   0.057142   0.014254   0.022427   0.020438
  100  C 16  X    0.080061  -0.007328  -0.048533  -0.140232  -0.018425
  101  C 16  Y   -0.034290  -0.109520   0.040219   0.004277  -0.041814
  102  C 16  Z    0.000000   0.000000   0.000000   0.000000   0.000000
  103  H 17  S   -0.019900  -0.110511   0.053887  -0.008464  -0.034309
  104  H 17  S   -0.012242  -0.079304   0.058348   0.007106  -0.019330
  105  H 18  S    0.019900   0.110511  -0.053887  -0.008464   0.034309
  106  H 18  S    0.012242   0.079304  -0.058348   0.007106   0.019330
  107  H 19  S    0.099291   0.008131  -0.056434   0.144697  -0.008088
  108  H 19  S    0.072307   0.006509  -0.042908   0.126065  -0.006281
  109  H 20  S   -0.099291  -0.008131   0.056434   0.144697   0.008088
  110  H 20  S   -0.072307  -0.006509   0.042908   0.126065   0.006281

                     26         27         28         29         30
                   -0.4100    -0.3914    -0.3835    -0.3524    -0.3443
                     BU         AG         AU         BU         AG  
    1  C  1  S    0.004566   0.023718   0.000000   0.013396  -0.005176
    2  C  1  S   -0.003562  -0.022877   0.000000  -0.011544   0.004107
    3  C  1  X    0.111009  -0.034972   0.000000   0.158669  -0.169645
    4  C  1  Y    0.106051   0.063932   0.000000  -0.054925  -0.138020
    5  C  1  Z    0.000000   0.000000   0.196629   0.000000   0.000000
    6  C  1  S   -0.019070  -0.112315   0.000000  -0.074321   0.025726
    7  C  1  X    0.087346  -0.028358   0.000000   0.113366  -0.129282
    8  C  1  Y    0.058673   0.048465   0.000000  -0.040467  -0.086811
    9  C  1  Z    0.000000   0.000000   0.166134   0.000000   0.000000
   10  C  2  S   -0.004566   0.023718   0.000000  -0.013396  -0.005176
   11  C  2  S    0.003562  -0.022877   0.000000   0.011544   0.004107
   12  C  2  X    0.111009   0.034972   0.000000   0.158669   0.169645
   13  C  2  Y    0.106051  -0.063932   0.000000  -0.054925   0.138020
   14  C  2  Z    0.000000   0.000000   0.196629   0.000000   0.000000
   15  C  2  S    0.019070  -0.112315   0.000000   0.074321   0.025726
   16  C  2  X    0.087346   0.028358   0.000000   0.113366   0.129282
   17  C  2  Y    0.058673  -0.048465   0.000000  -0.040467   0.086811
   18  C  2  Z    0.000000   0.000000   0.166134   0.000000   0.000000
   19  C  3  S   -0.013579   0.006330   0.000000  -0.005023   0.002142
   20  C  3  S    0.013715  -0.003368   0.000000   0.006204  -0.002478
   21  C  3  X   -0.168947   0.130414   0.000000   0.023100   0.175173
   22  C  3  Y   -0.034910  -0.089309   0.000000  -0.042550   0.129710
   23  C  3  Z    0.000000   0.000000   0.173471   0.000000   0.000000
   24  C  3  S    0.051565  -0.035261   0.000000   0.013049  -0.011373
   25  C  3  X   -0.086875   0.077197   0.000000   0.010481   0.101016
   26  C  3  Y   -0.007995  -0.075805   0.000000  -0.036433   0.096424
   27  C  3  Z    0.000000   0.000000   0.146914   0.000000   0.000000
   28  C  4  S    0.013579   0.006330   0.000000   0.005023   0.002142
   29  C  4  S   -0.013715  -0.003368   0.000000  -0.006204  -0.002478
   30  C  4  X   -0.168947  -0.130414   0.000000   0.023100  -0.175173
   31  C  4  Y   -0.034910   0.089309   0.000000  -0.042550  -0.129710
   32  C  4  Z    0.000000   0.000000   0.173471   0.000000   0.000000
   33  C  4  S   -0.051565  -0.035261   0.000000  -0.013049  -0.011373
   34  C  4  X   -0.086875  -0.077197   0.000000   0.010481  -0.101016
   35  C  4  Y   -0.007995   0.075805   0.000000  -0.036433  -0.096424
   36  C  4  Z    0.000000   0.000000   0.146914   0.000000   0.000000
   37  C  5  S    0.007537  -0.006487   0.000000   0.010863  -0.005093
   38  C  5  S   -0.009672   0.006688   0.000000  -0.012385   0.009272
   39  C  5  X    0.151837  -0.131536   0.000000  -0.004437  -0.140649
   40  C  5  Y   -0.029538   0.053678   0.000000   0.086901  -0.104248
   41  C  5  Z    0.000000   0.000000   0.173009   0.000000   0.000000
   42  C  5  S   -0.020164   0.033214   0.000000  -0.028901   0.012628
   43  C  5  X    0.094067  -0.079105   0.000000  -0.000974  -0.120477
   44  C  5  Y   -0.021065   0.008896   0.000000   0.070151  -0.089398
   45  C  5  Z    0.000000   0.000000   0.145731   0.000000   0.000000
   46  C  6  S   -0.007537  -0.006487   0.000000  -0.010863  -0.005093
   47  C  6  S    0.009672   0.006688   0.000000   0.012385   0.009272
   48  C  6  X    0.151837   0.131536   0.000000  -0.004437   0.140649
   49  C  6  Y   -0.029538  -0.053678   0.000000   0.086901   0.104248
   50  C  6  Z    0.000000   0.000000   0.173009   0.000000   0.000000
   51  C  6  S    0.020164   0.033214   0.000000   0.028901   0.012628
   52  C  6  X    0.094067   0.079105   0.000000  -0.000974   0.120477
   53  C  6  Y   -0.021065  -0.008896   0.000000   0.070151   0.089398
   54  C  6  Z    0.000000   0.000000   0.145731   0.000000   0.000000
   55  H  7  S    0.028069  -0.096501   0.000000  -0.023557   0.047124
   56  H  7  S    0.014650  -0.078828   0.000000  -0.010499   0.043595
   57  H  8  S   -0.028069  -0.096501   0.000000   0.023557   0.047124
   58  H  8  S   -0.014650  -0.078828   0.000000   0.010499   0.043595
   59  H  9  S    0.038682  -0.011859   0.000000   0.025752  -0.141914
   60  H  9  S    0.035564   0.005468   0.000000   0.007983  -0.149830
   61  H 10  S   -0.038682  -0.011859   0.000000  -0.025752  -0.141914
   62  H 10  S   -0.035564   0.005468   0.000000  -0.007983  -0.149830
   63  C 11  S    0.001576  -0.022253   0.000000   0.001301  -0.013855
   64  C 11  S   -0.006198   0.017977   0.000000   0.002646   0.013139
   65  C 11  X   -0.131677  -0.093126   0.000000  -0.105573  -0.148461
   66  C 11  Y   -0.165105  -0.125997   0.000000   0.148791   0.023921
   67  C 11  Z    0.000000   0.000000   0.096622   0.000000   0.000000
   68  C 11  S    0.013618   0.111790   0.000000  -0.026925   0.066333
   69  C 11  X   -0.053607  -0.053121   0.000000  -0.067788  -0.084686
   70  C 11  Y   -0.098988  -0.082131   0.000000   0.121611   0.031405
   71  C 11  Z    0.000000   0.000000   0.078868   0.000000   0.000000
   72  C 12  S   -0.001576  -0.022253   0.000000  -0.001301  -0.013855
   73  C 12  S    0.006198   0.017977   0.000000  -0.002646   0.013139
   74  C 12  X   -0.131677   0.093126   0.000000  -0.105573   0.148461
   75  C 12  Y   -0.165105   0.125997   0.000000   0.148791  -0.023921
   76  C 12  Z    0.000000   0.000000   0.096622   0.000000   0.000000
   77  C 12  S   -0.013618   0.111790   0.000000   0.026925   0.066333
   78  C 12  X   -0.053607   0.053121   0.000000  -0.067788   0.084686
   79  C 12  Y   -0.098988   0.082131   0.000000   0.121611  -0.031405
   80  C 12  Z    0.000000   0.000000   0.078868   0.000000   0.000000
   81  H 13  S    0.087402   0.094896   0.000000  -0.137550  -0.028341
   82  H 13  S    0.079314   0.078416   0.000000  -0.137201  -0.028003
   83  H 14  S   -0.087402   0.094896   0.000000   0.137550  -0.028341
   84  H 14  S   -0.079314   0.078416   0.000000   0.137201  -0.028003
   85  C 15  S    0.015321   0.009017   0.000000  -0.004001   0.005649
   86  C 15  S   -0.021704  -0.012749   0.000000   0.006054  -0.007139
   87  C 15  X    0.194672  -0.026256   0.000000   0.101907   0.096723
   88  C 15  Y    0.080234   0.203110   0.000000  -0.151046   0.011278
   89  C 15  Z    0.000000   0.000000   0.051003   0.000000   0.000000
   90  C 15  S   -0.036269  -0.021850   0.000000   0.007398  -0.019550
   91  C 15  X    0.115771  -0.027530   0.000000   0.090382   0.084260
   92  C 15  Y    0.041644   0.141971   0.000000  -0.115088   0.014055
   93  C 15  Z    0.000000   0.000000   0.043934   0.000000   0.000000
   94  C 16  S   -0.015321   0.009017   0.000000   0.004001   0.005649
   95  C 16  S    0.021704  -0.012749   0.000000  -0.006054  -0.007139
   96  C 16  X    0.194672   0.026256   0.000000   0.101907  -0.096723
   97  C 16  Y    0.080234  -0.203110   0.000000  -0.151046  -0.011278
   98  C 16  Z    0.000000   0.000000   0.051003   0.000000   0.000000
   99  C 16  S    0.036269  -0.021850   0.000000  -0.007398  -0.019550
  100  C 16  X    0.115771   0.027530   0.000000   0.090382  -0.084260
  101  C 16  Y    0.041644  -0.141971   0.000000  -0.115088  -0.014055
  102  C 16  Z    0.000000   0.000000   0.043934   0.000000   0.000000
  103  H 17  S    0.022270   0.136901   0.000000  -0.130954  -0.025743
  104  H 17  S    0.034402   0.128209   0.000000  -0.134642  -0.046306
  105  H 18  S   -0.022270   0.136901   0.000000   0.130954  -0.025743
  106  H 18  S   -0.034402   0.128209   0.000000   0.134642  -0.046306
  107  H 19  S    0.096129  -0.071676   0.000000   0.121520   0.068377
  108  H 19  S    0.095940  -0.060488   0.000000   0.117773   0.070646
  109  H 20  S   -0.096129  -0.071676   0.000000  -0.121520   0.068377
  110  H 20  S   -0.095940  -0.060488   0.000000  -0.117773   0.070646

                     31         32         33         34         35
                   -0.3353    -0.3213    -0.2721    -0.2537    -0.2139
                     AG         BG         AU         BG         BG  
    1  C  1  S   -0.011585   0.000000   0.000000   0.000000   0.000000
    2  C  1  S    0.009763   0.000000   0.000000   0.000000   0.000000
    3  C  1  X   -0.099766   0.000000   0.000000   0.000000   0.000000
    4  C  1  Y    0.179603   0.000000   0.000000   0.000000   0.000000
    5  C  1  Z    0.000000  -0.198212  -0.010275   0.007855   0.214999
    6  C  1  S    0.065422   0.000000   0.000000   0.000000   0.000000
    7  C  1  X   -0.076139   0.000000   0.000000   0.000000   0.000000
    8  C  1  Y    0.141259   0.000000   0.000000   0.000000   0.000000
    9  C  1  Z    0.000000  -0.177861  -0.008268   0.005958   0.230405
   10  C  2  S   -0.011585   0.000000   0.000000   0.000000   0.000000
   11  C  2  S    0.009763   0.000000   0.000000   0.000000   0.000000
   12  C  2  X    0.099766   0.000000   0.000000   0.000000   0.000000
   13  C  2  Y   -0.179603   0.000000   0.000000   0.000000   0.000000
   14  C  2  Z    0.000000   0.198212  -0.010275  -0.007855  -0.214999
   15  C  2  S    0.065422   0.000000   0.000000   0.000000   0.000000
[...]
    5 C             6.192751   -0.192751         6.086466   -0.086466
    6 C             6.192751   -0.192751         6.086466   -0.086466
    7 H             0.817009    0.182991         0.904588    0.095412
    8 H             0.817009    0.182991         0.904588    0.095412
    9 H             0.814967    0.185033         0.903495    0.096505
   10 H             0.814967    0.185033         0.903495    0.096505
   11 C             6.169649   -0.169649         6.083182   -0.083182
   12 C             6.169649   -0.169649         6.083182   -0.083182
   13 H             0.815309    0.184691         0.907119    0.092881
   14 H             0.815309    0.184691         0.907119    0.092881
   15 C             6.373082   -0.373082         6.188542   -0.188542
   16 C             6.373082   -0.373082         6.188542   -0.188542
   17 H             0.814736    0.185264         0.908750    0.091250
   18 H             0.814736    0.185264         0.908750    0.091250
   19 H             0.809898    0.190102         0.902372    0.097628
   20 H             0.809898    0.190102         0.902372    0.097628

          -------------------------------
          BOND ORDER AND VALENCE ANALYSIS     BOND ORDER THRESHOLD=0.050
          -------------------------------

                   BOND                       BOND                       BOND
  ATOM PAIR DIST  ORDER      ATOM PAIR DIST  ORDER      ATOM PAIR DIST  ORDER
    1   2  2.823  0.084        1   3  1.396  1.330        1   6  1.395  1.351
    1  12  1.496  1.044        2   4  1.396  1.330        2   5  1.395  1.351
    2  11  1.496  1.044        3   4  2.755  0.090        3   5  1.382  1.431
    3   7  1.083  0.929        4   6  1.382  1.431        4   8  1.083  0.929
    5   6  2.767  0.098        5   9  1.081  0.923        6  10  1.081  0.923
   11  13  1.084  0.923       11  15  1.314  1.854       12  14  1.084  0.923
   12  16  1.314  1.854       15  17  1.080  0.925       15  19  1.081  0.927
   16  18  1.080  0.925       16  20  1.081  0.927

                       TOTAL       BONDED        FREE
      ATOM            VALENCE     VALENCE     VALENCE
    1 C                 3.748       3.748       0.000
    2 C                 3.748       3.748       0.000
    3 C                 3.765       3.765       0.000
    4 C                 3.765       3.765       0.000
    5 C                 3.777       3.777       0.000
    6 C                 3.777       3.777       0.000
    7 H                 0.935       0.935       0.000
    8 H                 0.935       0.935       0.000
    9 H                 0.937       0.937       0.000
   10 H                 0.937       0.937       0.000
   11 C                 3.787       3.787       0.000
   12 C                 3.787       3.787       0.000
   13 H                 0.930       0.930       0.000
   14 H                 0.930       0.930       0.000
   15 C                 3.783       3.783       0.000
   16 C                 3.783       3.783       0.000
   17 H                 0.933       0.933       0.000
   18 H                 0.933       0.933       0.000
   19 H                 0.928       0.928       0.000
   20 H                 0.928       0.928       0.000

          ---------------------
          ELECTROSTATIC MOMENTS
          ---------------------

 POINT   1           X           Y           Z (BOHR)    CHARGE
                 0.000000    0.000000    0.000000        0.00 (A.U.)
         DX          DY          DZ         /D/  (DEBYE)
     0.000000    0.000000    0.000000    0.000000
 ...... END OF PROPERTY EVALUATION ......
 STEP CPU TIME =     0.11 TOTAL CPU TIME =       47.6 (    0.8 MIN)
 TOTAL WALL CLOCK TIME=       51.7 SECONDS, CPU UTILIZATION IS  92.02%

 -----------------------------------------------------------------------
                            TD-DFT CALCULATION
                          CODED BY MAHITO CHIBA
 NATIONAL INSTITUTE OF ADVANCED INDUSTRIAL SCIENCE AND TECHNOLOGY, JAPAN
 -----------------------------------------------------------------------

 REGENERATING AO INTEGRAL LIST IN C1 SYMMETRY FOR TDDFT ITERATIONS...

          --------------------
          2 ELECTRON INTEGRALS
          --------------------

 THE -PK- OPTION IS OFF, THE INTEGRALS ARE NOT IN SUPERMATRIX FORM.
 STORING   15000 INTEGRALS/RECORD ON DISK, USING 12 BYTES/INTEGRAL.
 TWO ELECTRON INTEGRAL EVALUATION REQUIRES   90631 WORDS OF MEMORY.
 SCHWARZ INEQUALITY OVERHEAD:      5711 INTEGRALS, T=        0.00
 II,JST,KST,LST =  1  1  1  1 NREC =         1 INTLOC =    1
 II,JST,KST,LST =  2  1  1  1 NREC =         1 INTLOC =    2
 II,JST,KST,LST =  3  1  1  1 NREC =         1 INTLOC =   34
 II,JST,KST,LST =  4  1  1  1 NREC =         1 INTLOC =  214
 II,JST,KST,LST =  5  1  1  1 NREC =         1 INTLOC =  379
 II,JST,KST,LST =  6  1  1  1 NREC =         1 INTLOC = 2222
 II,JST,KST,LST =  7  1  1  1 NREC =         1 INTLOC = 6624
 II,JST,KST,LST =  8  1  1  1 NREC =         1 INTLOC = 8210
 II,JST,KST,LST =  9  1  1  1 NREC =         2 INTLOC = 3498
 II,JST,KST,LST = 10  1  1  1 NREC =         3 INTLOC = 5853
 II,JST,KST,LST = 11  1  1  1 NREC =         3 INTLOC =10361
 II,JST,KST,LST = 12  1  1  1 NREC =         5 INTLOC = 8769
 II,JST,KST,LST = 13  1  1  1 NREC =         8 INTLOC = 6779
 II,JST,KST,LST = 14  1  1  1 NREC =         9 INTLOC = 3445
 II,JST,KST,LST = 15  1  1  1 NREC =        13 INTLOC = 6941
 II,JST,KST,LST = 16  1  1  1 NREC =        19 INTLOC = 3904
 II,JST,KST,LST = 17  1  1  1 NREC =        20 INTLOC = 9586
 II,JST,KST,LST = 18  1  1  1 NREC =        28 INTLOC = 4748
 II,JST,KST,LST = 19  1  1  1 NREC =        38 INTLOC = 7236
 II,JST,KST,LST = 20  1  1  1 NREC =        40 INTLOC =14335
 II,JST,KST,LST = 21  1  1  1 NREC =        44 INTLOC = 4162
 II,JST,KST,LST = 22  1  1  1 NREC =        46 INTLOC =14821
 II,JST,KST,LST = 23  1  1  1 NREC =        50 INTLOC =10298
 II,JST,KST,LST = 24  1  1  1 NREC =        53 INTLOC =11636
 II,JST,KST,LST = 25  1  1  1 NREC =        57 INTLOC =13685
 II,JST,KST,LST = 26  1  1  1 NREC =        61 INTLOC = 4161
 II,JST,KST,LST = 27  1  1  1 NREC =        65 INTLOC =12779
 II,JST,KST,LST = 28  1  1  1 NREC =        68 INTLOC = 4623
 II,JST,KST,LST = 29  1  1  1 NREC =        81 INTLOC =14986
 II,JST,KST,LST = 30  1  1  1 NREC =       104 INTLOC = 2026
 II,JST,KST,LST = 31  1  1  1 NREC =       107 INTLOC = 1901
 II,JST,KST,LST = 32  1  1  1 NREC =       124 INTLOC =  950
 II,JST,KST,LST = 33  1  1  1 NREC =       152 INTLOC = 8572
 II,JST,KST,LST = 34  1  1  1 NREC =       157 INTLOC =11148
 II,JST,KST,LST = 35  1  1  1 NREC =       166 INTLOC = 4314
 II,JST,KST,LST = 36  1  1  1 NREC =       171 INTLOC =10094
 II,JST,KST,LST = 37  1  1  1 NREC =       180 INTLOC = 9783
 II,JST,KST,LST = 38  1  1  1 NREC =       184 INTLOC = 1205
 II,JST,KST,LST = 39  1  1  1 NREC =       204 INTLOC =13253
 II,JST,KST,LST = 40  1  1  1 NREC =       242 INTLOC = 2510
 II,JST,KST,LST = 41  1  1  1 NREC =       246 INTLOC =  806
 II,JST,KST,LST = 42  1  1  1 NREC =       269 INTLOC = 9064
 II,JST,KST,LST = 43  1  1  1 NREC =       311 INTLOC =12618
 II,JST,KST,LST = 44  1  1  1 NREC =       319 INTLOC =11240
 II,JST,KST,LST = 45  1  1  1 NREC =       332 INTLOC =14071
 II,JST,KST,LST = 46  1  1  1 NREC =       341 INTLOC = 1457
 II,JST,KST,LST = 47  1  1  1 NREC =       354 INTLOC =10662
 II,JST,KST,LST = 48  1  1  1 NREC =       361 INTLOC = 1257
 II,JST,KST,LST = 49  1  1  1 NREC =       372 INTLOC =12008
 II,JST,KST,LST = 50  1  1  1 NREC =       379 INTLOC = 4936
 SCHWARZ INEQUALITY TEST SKIPPED    442149 INTEGRAL BLOCKS.
 TOTAL NUMBER OF NONZERO TWO-ELECTRON INTEGRALS =             5854882
        391 INTEGRAL RECORDS WERE STORED ON DISK FILE  8.
  ...... END OF TWO-ELECTRON INTEGRALS .....
 STEP CPU TIME =     2.44 TOTAL CPU TIME =       50.0 (    0.8 MIN)
 TOTAL WALL CLOCK TIME=       64.3 SECONDS, CPU UTILIZATION IS  77.82%

 MEMORY REQUIRED TO SET UP GRID POINTS IS   5620601 WORDS.

     EXCHANGE FUNCTIONAL   =B88&HFX   
     CORRELATION FUNCTIONAL=LYP88&VWN5
     DFT THRESHOLD         =.181E-08
     GRID CHANGE THRESHOLD =.300E-03
  
 -TDDFT RUNTIME PARAMETERS-
    ILENG    =         200
    MAXGRD   =      475942
    TRIPLET  = F
    NSTATE   =          10
    IROOT    =           1
    NTRIAL   =           5
    MAXVEC   =         200
  
 MEMORY REQUIRED FOR TD-DFT ITERATIONS IS  35057792 WORDS.
 INITIAL VECTORS / MXVEC           10 /         200
 ITERATION #            1
    CURRENT VECTORS    1 TO  10 (  10 VECTORS)
    STATE NUMBER   1  ENERGY =    4.929271 EV
    STATE NUMBER   2  ENERGY =    5.331054 EV
    STATE NUMBER   3  ENERGY =    5.825951 EV
    STATE NUMBER   4  ENERGY =    6.834629 EV
    STATE NUMBER   5  ENERGY =    7.072869 EV
    STATE NUMBER   6  ENERGY =    7.095831 EV
    STATE NUMBER   7  ENERGY =    7.341184 EV
    STATE NUMBER   8  ENERGY =    7.774537 EV
    STATE NUMBER   9  ENERGY =    7.826659 EV
    STATE NUMBER  10  ENERGY =    8.790402 EV
    MAX ERROR =  1.358E-01 / 1.000E-07
 ITERATION #            2
    CURRENT VECTORS   11 TO  30 (  20 VECTORS)
    STATE NUMBER   1  ENERGY =    4.740972 EV
    STATE NUMBER   2  ENERGY =    4.930664 EV
    STATE NUMBER   3  ENERGY =    5.792199 EV
    STATE NUMBER   4  ENERGY =    6.056113 EV
    STATE NUMBER   5  ENERGY =    6.696267 EV
    STATE NUMBER   6  ENERGY =    6.859497 EV
    STATE NUMBER   7  ENERGY =    7.004222 EV
    STATE NUMBER   8  ENERGY =    7.040360 EV
    STATE NUMBER   9  ENERGY =    7.120157 EV
    STATE NUMBER  10  ENERGY =    7.260816 EV
    MAX ERROR =  6.869E-03 / 1.000E-07
 ITERATION #            3
    CURRENT VECTORS   31 TO  50 (  20 VECTORS)
    STATE NUMBER   1  ENERGY =    4.726002 EV
    STATE NUMBER   2  ENERGY =    4.928422 EV
    STATE NUMBER   3  ENERGY =    5.789913 EV
    STATE NUMBER   4  ENERGY =    6.041528 EV
    STATE NUMBER   5  ENERGY =    6.615722 EV
    STATE NUMBER   6  ENERGY =    6.846827 EV
    STATE NUMBER   7  ENERGY =    7.000291 EV
    STATE NUMBER   8  ENERGY =    7.018317 EV
    STATE NUMBER   9  ENERGY =    7.099400 EV
    STATE NUMBER  10  ENERGY =    7.171453 EV
    MAX ERROR =  5.659E-04 / 1.000E-07
 ITERATION #            4
    CURRENT VECTORS   51 TO  70 (  20 VECTORS)
    STATE NUMBER   1  ENERGY =    4.725679 EV
    STATE NUMBER   2  ENERGY =    4.928368 EV
    STATE NUMBER   3  ENERGY =    5.789782 EV
    STATE NUMBER   4  ENERGY =    6.040953 EV
    STATE NUMBER   5  ENERGY =    6.607159 EV
    STATE NUMBER   6  ENERGY =    6.845924 EV
    STATE NUMBER   7  ENERGY =    6.999424 EV
    STATE NUMBER   8  ENERGY =    7.017372 EV
    STATE NUMBER   9  ENERGY =    7.097630 EV
    STATE NUMBER  10  ENERGY =    7.168062 EV
    MAX ERROR =  1.960E-05 / 1.000E-07
 ITERATION #            5
    CURRENT VECTORS   71 TO  88 (  18 VECTORS)
    STATE NUMBER   1  ENERGY =    4.725673 EV
    STATE NUMBER   2  ENERGY =    4.928367 EV
    STATE NUMBER   3  ENERGY =    5.789778 EV
    STATE NUMBER   4  ENERGY =    6.040936 EV
    STATE NUMBER   5  ENERGY =    6.606895 EV
    STATE NUMBER   6  ENERGY =    6.845895 EV
    STATE NUMBER   7  ENERGY =    6.999312 EV
    STATE NUMBER   8  ENERGY =    7.017322 EV
    STATE NUMBER   9  ENERGY =    7.097558 EV
    STATE NUMBER  10  ENERGY =    7.167880 EV
    MAX ERROR =  1.101E-06 / 1.000E-07
 ITERATION #            6
    CURRENT VECTORS   89 TO 102 (  14 VECTORS)
    STATE NUMBER   1  ENERGY =    4.725673 EV
    STATE NUMBER   2  ENERGY =    4.928367 EV
    STATE NUMBER   3  ENERGY =    5.789778 EV
    STATE NUMBER   4  ENERGY =    6.040935 EV
    STATE NUMBER   5  ENERGY =    6.606884 EV
    STATE NUMBER   6  ENERGY =    6.845894 EV
    STATE NUMBER   7  ENERGY =    6.999296 EV
    STATE NUMBER   8  ENERGY =    7.017319 EV
    STATE NUMBER   9  ENERGY =    7.097554 EV
    STATE NUMBER  10  ENERGY =    7.167871 EV
    MAX ERROR =  1.324E-07 / 1.000E-07
 ITERATION #            7
    CURRENT VECTORS  103 TO 108 (   6 VECTORS)
    STATE NUMBER   1  ENERGY =    4.725673 EV
    STATE NUMBER   2  ENERGY =    4.928367 EV
    STATE NUMBER   3  ENERGY =    5.789778 EV
    STATE NUMBER   4  ENERGY =    6.040935 EV
    STATE NUMBER   5  ENERGY =    6.606884 EV
    STATE NUMBER   6  ENERGY =    6.845894 EV
    STATE NUMBER   7  ENERGY =    6.999295 EV
    STATE NUMBER   8  ENERGY =    7.017319 EV
    STATE NUMBER   9  ENERGY =    7.097554 EV
    STATE NUMBER  10  ENERGY =    7.167870 EV
    MAX ERROR =  2.601E-08 / 1.000E-07
  
   ---------------------------------  
     R-TDDFT CALCULATION CONVERGED
   ---------------------------------  
 NUMBER OF USED VECTORS / MAX = 108 / 200
 NUMBER OF ITERATIONS   / MAX =   7 / 100
 NUMBER OF SINGLE EXCITATIONS =  2625
 NUMBER OF ATOMIC ORBITALS    = 110
 NUMBER OF TOTAL ELECTRONS    =          70.0027940

          -------------------
          SINGLET EXCITATIONS
          -------------------

 STATE #   1  ENERGY =    4.725739 EV
 OSCILLATOR STRENGTH =    0.651371
 SYMMETRY OF STATE   =    BU  
        DRF    COEF       OCC      VIR
        ---    ----       ---      ---
         34 -0.148475     34  ->   36
         35  0.860572     35  ->   36
         69 -0.135906     34  ->   37
         70 -0.226643     35  ->   37
        103  0.043857     33  ->   38
        137 -0.041187     32  ->   39
        139 -0.032415     34  ->   39
        169 -0.031767     29  ->   40
        378 -0.031875     28  ->   46
        554  0.034882     29  ->   51
        590 -0.033302     30  ->   52
        661 -0.033911     31  ->   54

 STATE #   2  ENERGY =    4.928436 EV
 OSCILLATOR STRENGTH =    0.051448
 SYMMETRY OF STATE   =    BU  
        DRF    COEF       OCC      VIR
        ---    ----       ---      ---
         34 -0.749876     34  ->   36
         35 -0.220121     35  ->   36
         67 -0.070269     32  ->   37
         70 -0.625220     35  ->   37
        139 -0.033687     34  ->   39

 STATE #   3  ENERGY =    5.789859 EV
 OSCILLATOR STRENGTH =    0.000000
 SYMMETRY OF STATE   =    AG  
        DRF    COEF       OCC      VIR
        ---    ----       ---      ---
         33 -0.785668     33  ->   36
        102 -0.036360     32  ->   38
        105 -0.619216     35  ->   38
        138 -0.069908     33  ->   39

 STATE #   4  ENERGY =    6.041019 EV
 OSCILLATOR STRENGTH =    0.230272
 SYMMETRY OF STATE   =    BU  
        DRF    COEF       OCC      VIR
        ---    ----       ---      ---
         34  0.557113     34  ->   36
         35 -0.060400     35  ->   36
         67  0.203416     32  ->   37
         69  0.049314     34  ->   37
         70 -0.674991     35  ->   37
        103 -0.034578     33  ->   38
        139 -0.174446     34  ->   39
        205  0.030106     30  ->   41
        547 -0.030549     22  ->   51
        550  0.037755     25  ->   51
        591  0.039727     31  ->   52
        621 -0.033436     26  ->   53
        660 -0.033818     30  ->   54
        695  0.038473     30  ->   55

 STATE #   5  ENERGY =    6.606976 EV
 OSCILLATOR STRENGTH =    0.000000
 SYMMETRY OF STATE   =    AG  
        DRF    COEF       OCC      VIR
        ---    ----       ---      ---
         28  0.048508     28  ->   36
         33  0.487049     33  ->   36
         68 -0.325205     33  ->   37
        102 -0.136885     32  ->   38
        104 -0.070680     34  ->   38
        105 -0.672984     35  ->   38
        138  0.089912     33  ->   39
        159 -0.036342     19  ->   40
        167 -0.037749     27  ->   40
        200 -0.044594     25  ->   41
        232  0.035113     22  ->   42
        275  0.037145     30  ->   43
        484 -0.030252     29  ->   49
        586  0.044245     26  ->   52
        619 -0.031914     24  ->   53
        625 -0.037975     30  ->   53
        694  0.038162     29  ->   55

 STATE #   6  ENERGY =    6.845989 EV
 OSCILLATOR STRENGTH =    0.000000
 SYMMETRY OF STATE   =    AG  
        DRF    COEF       OCC      VIR
        ---    ----       ---      ---
         33  0.116618     33  ->   36
         68  0.785052     33  ->   37
        102 -0.036416     32  ->   38
        104 -0.568888     34  ->   38
        105 -0.155691     35  ->   38

 STATE #   7  ENERGY =    6.999392 EV
 OSCILLATOR STRENGTH =    0.000001
 SYMMETRY OF STATE   =    AU  
        DRF    COEF       OCC      VIR
        ---    ----       ---      ---
         30  0.139097     30  ->   36
         31 -0.977609     31  ->   36
         99 -0.097391     29  ->   38
        132 -0.034548     27  ->   39
        136 -0.039495     31  ->   39

 STATE #   8  ENERGY =    7.017417 EV
 OSCILLATOR STRENGTH =    0.202025
 SYMMETRY OF STATE   =    BU  
        DRF    COEF       OCC      VIR
        ---    ----       ---      ---
         32  0.737942     32  ->   36
         34  0.032292     34  ->   36
         35 -0.052664     35  ->   36
         69 -0.565091     34  ->   37
         98  0.034751     28  ->   38
        103 -0.053396     33  ->   38
        137  0.048896     32  ->   39
        139 -0.030798     34  ->   39
        140 -0.214191     35  ->   39
        378 -0.036130     28  ->   46
        383 -0.067409     33  ->   46
        620 -0.032688     25  ->   53

 STATE #   9  ENERGY =    7.097653 EV
 OSCILLATOR STRENGTH =    0.000000
 SYMMETRY OF STATE   =    AG  
        DRF    COEF       OCC      VIR
        ---    ----       ---      ---
         33  0.118223     33  ->   36
         63 -0.114392     28  ->   37
         68  0.503009     33  ->   37
        102 -0.042995     32  ->   38
        104  0.801462     34  ->   38
        105 -0.161141     35  ->   38
        138  0.036581     33  ->   39
        384  0.062641     34  ->   46

 STATE #  10  ENERGY =    7.167970 EV
 OSCILLATOR STRENGTH =    0.341049
 SYMMETRY OF STATE   =    BU  
        DRF    COEF       OCC      VIR
        ---    ----       ---      ---
         32  0.475117     32  ->   36
         35  0.049949     35  ->   36
         69  0.643539     34  ->   37
         98 -0.104420     28  ->   38
        103 -0.246733     33  ->   38
        137 -0.049779     32  ->   39
        140 -0.430790     35  ->   39
        590 -0.040555     30  ->   52
        620  0.039192     25  ->   53
        661 -0.031360     31  ->   54

                          SUMMARY OF TDDFT RESULTS

   STATE             ENERGY     EXCITATION      TRANSITION DIPOLE    OSCILLATOR
                    HARTREE          EV         X       Y       Z     STRENGTH
   0  AG        -384.6654552797    0.000
   1  BU        -384.4917914948    4.726     2.3714  0.0491  0.0000    0.651
   2  BU        -384.4843426885    4.928    -0.6487  0.0732  0.0000    0.051
   3  AG        -384.4526866821    5.790     0.0000  0.0000  0.0000    0.000
   4  BU        -384.4434569323    6.041    -0.8302 -0.9310  0.0000    0.230
   5  AG        -384.4226588820    6.607     0.0000  0.0000  0.0000    0.000
   6  AG        -384.4138754884    6.846     0.0000  0.0000  0.0000    0.000
   7  AU        -384.4082381672    6.999     0.0000  0.0000  0.0018    0.000
   8  BU        -384.4075757807    7.017    -1.0837 -0.0275  0.0000    0.202
   9  AG        -384.4046272288    7.098     0.0000  0.0000  0.0000    0.000
  10  BU        -384.4020431690    7.168     1.3875 -0.1301  0.0000    0.341
  
 SELECTING EXCITED STATE IROOT=   1 AT E=     -384.4917914948
 AS THE STATE OF INTEREST.

 ..... DONE WITH TD-DFT EXCITATION ENERGIES .....
 STEP CPU TIME =  4150.94 TOTAL CPU TIME =     4200.9 (   70.0 MIN)
 TOTAL WALL CLOCK TIME=     4277.1 SECONDS, CPU UTILIZATION IS  98.22%
    35057792  WORDS OF DYNAMIC MEMORY USED
 EXECUTION OF GAMESS TERMINATED NORMALLY Wed Nov  7 17:03:14 2007
 DDI: 262808 bytes (0.3 MB / 0 MWords) used by master data server.

 ----------------------------------------
 CPU timing information for all processes
 ========================================
 0: 4197.093000 + 4.046000 = 4201.139000
 1: 0.031000 + 0.078000 = 0.109000
 ----------------------------------------
 ddikick.x: exited gracefully.
----- accounting info -----
