Jobname.Temp
SP        R                             aug-cc-pVQZ         
Number of atoms                            I                1
Charge                                     I                0
Multiplicity                               I                1
Number of electrons                        I                6
Number of alpha electrons                  I                3
Number of beta electrons                   I                3
Atomic numbers                             I   N=           1
           6
Current cartesian coordinates              R   N=           3
  4.44089210E-16  0.00000000E+00  0.00000000E+00
Nuclear charges                            R   N=           1
  6.00000000E+00
Number of basis functions                  I               80
Number of contracted shells                I               20
Number of primitive shells                 I               38
Highest angular momentum                   I                4
Largest degree of contraction              I                9
Shell types                                I   N=          20
           0           0           0           0           0           0
           1           1           1           1           1          -2
          -2          -2          -2          -3          -3          -3
          -4          -4
Number of primitives per shell             I   N=          20
           9           9           1           1           1           1
           3           1           1           1           1           1
           1           1           1           1           1           1
           1           1
Shell to atom map                          I   N=          20
           1           1           1           1           1           1
           1           1           1           1           1           1
           1           1           1           1           1           1
           1           1
Primitive exponents                        R   N=          38
  3.39800000E+04  5.08900000E+03  1.15700000E+03  3.26600000E+02  1.06100000E+02
  3.81100000E+01  1.47500000E+01  6.03500000E+00  2.53000000E+00  3.39800000E+04
  5.08900000E+03  1.15700000E+03  3.26600000E+02  1.06100000E+02  3.81100000E+01
  1.47500000E+01  6.03500000E+00  2.53000000E+00  7.35500000E-01  2.90500000E-01
  1.11100000E-01  4.14500000E-02  3.45100000E+01  7.91500000E+00  2.36800000E+00
  8.13200000E-01  2.89000000E-01  1.00700000E-01  3.21800000E-02  1.84800000E+00
  6.49000000E-01  2.28000000E-01  7.66000000E-02  1.41900000E+00  4.85000000E-01
  1.87000000E-01  1.01100000E+00  4.24000000E-01
Contraction coefficients                   R   N=          38
  9.16345457E-05  7.08909013E-04  3.71875140E-03  1.54671057E-02  5.32980755E-02
  1.48068335E-01  3.07762174E-01  4.02129645E-01  2.18564503E-01 -5.57103602E-05
 -4.42750757E-04 -2.30171751E-03 -9.74638091E-03 -3.37546140E-02 -1.00161363E-01
 -2.26280823E-01 -4.14875052E-01 -3.46046369E-01  1.00000000E+00  1.00000000E+00
  1.00000000E+00  1.00000000E+00  3.16878552E-02  2.12894307E-01  8.39586752E-01
  1.00000000E+00  1.00000000E+00  1.00000000E+00  1.00000000E+00  1.00000000E+00
  1.00000000E+00  1.00000000E+00  1.00000000E+00  1.00000000E+00  1.00000000E+00
  1.00000000E+00  1.00000000E+00  1.00000000E+00
Coordinates of each shell                  R   N=          60
  4.44089210E-16  0.00000000E+00  0.00000000E+00  4.44089210E-16  0.00000000E+00
  0.00000000E+00  4.44089210E-16  0.00000000E+00  0.00000000E+00  4.44089210E-16
  0.00000000E+00  0.00000000E+00  4.44089210E-16  0.00000000E+00  0.00000000E+00
  4.44089210E-16  0.00000000E+00  0.00000000E+00  4.44089210E-16  0.00000000E+00
  0.00000000E+00  4.44089210E-16  0.00000000E+00  0.00000000E+00  4.44089210E-16
  0.00000000E+00  0.00000000E+00  4.44089210E-16  0.00000000E+00  0.00000000E+00
  4.44089210E-16  0.00000000E+00  0.00000000E+00  4.44089210E-16  0.00000000E+00
  0.00000000E+00  4.44089210E-16  0.00000000E+00  0.00000000E+00  4.44089210E-16
  0.00000000E+00  0.00000000E+00  4.44089210E-16  0.00000000E+00  0.00000000E+00
  4.44089210E-16  0.00000000E+00  0.00000000E+00  4.44089210E-16  0.00000000E+00
  0.00000000E+00  4.44089210E-16  0.00000000E+00  0.00000000E+00  4.44089210E-16
  0.00000000E+00  0.00000000E+00  4.44089210E-16  0.00000000E+00  0.00000000E+00
Overlap Matrix                             R   N=        3240
  1.00000000E+00 -9.90408585E-01  1.00000000E+00  4.74884939E-01 -5.47571798E-01
  1.00000000E+00  2.69692214E-01 -3.17594287E-01  8.55304117E-01  1.00000000E+00
  1.39145042E-01 -1.65442733E-01  5.54945264E-01  8.46251758E-01  1.00000000E+00
  6.80465483E-02 -8.12259625E-02  3.01325438E-01  5.37574906E-01  8.39180958E-01
  1.00000000E+00 -5.08076751E-33  3.72215757E-33 -9.99211729E-32  0.00000000E+00
 -3.39111577E-32  0.00000000E+00  1.00000000E+00  0.00000000E+00  0.00000000E+00
  0.00000000E+00  0.00000000E+00  0.00000000E+00  0.00000000E+00  0.00000000E+00
  1.00000000E+00  0.00000000E+00  0.00000000E+00  0.00000000E+00  0.00000000E+00
  0.00000000E+00  0.00000000E+00  0.00000000E+00  0.00000000E+00  1.00000000E+00
  0.00000000E+00  0.00000000E+00  0.00000000E+00  0.00000000E+00  0.00000000E+00
  0.00000000E+00  6.53298961E-01  0.00000000E+00  0.00000000E+00  1.00000000E+00
  0.00000000E+00  0.00000000E+00  0.00000000E+00  0.00000000E+00  0.00000000E+00
  0.00000000E+00  0.00000000E+00  6.53298961E-01  0.00000000E+00  0.00000000E+00
  1.00000000E+00  0.00000000E+00  0.00000000E+00  0.00000000E+00  0.00000000E+00
  0.00000000E+00  0.00000000E+00  0.00000000E+00  0.00000000E+00  6.53298961E-01
  0.00000000E+00  0.00000000E+00  1.00000000E+00  0.00000000E+00  0.00000000E+00
  0.00000000E+00  0.00000000E+00  0.00000000E+00  0.00000000E+00  2.74916570E-01
  0.00000000E+00  0.00000000E+00  7.25759933E-01  0.00000000E+00  0.00000000E+00
  1.00000000E+00  0.00000000E+00  0.00000000E+00  0.00000000E+00  0.00000000E+00
  0.00000000E+00  0.00000000E+00  0.00000000E+00  2.74916570E-01  0.00000000E+00
  0.00000000E+00  7.25759933E-01  0.00000000E+00  0.00000000E+00  1.00000000E+00
  0.00000000E+00  0.00000000E+00  0.00000000E+00  0.00000000E+00  0.00000000E+00
  0.00000000E+00  0.00000000E+00  0.00000000E+00  2.74916570E-01  0.00000000E+00
  0.00000000E+00  7.25759933E-01  0.00000000E+00  0.00000000E+00  1.00000000E+00
 -2.54711923E-35  1.61313567E-35 -1.64328935E-32  0.00000000E+00  0.00000000E+00
  0.00000000E+00  8.77547625E-02  0.00000000E+00  0.00000000E+00  3.10357215E-01
  0.00000000E+00  0.00000000E+00  7.17229454E-01  0.00000000E+00  0.00000000E+00
  1.00000000E+00  0.00000000E+00  0.00000000E+00  0.00000000E+00  0.00000000E+00
  0.00000000E+00  0.00000000E+00  0.00000000E+00  8.77547625E-02  0.00000000E+00
  0.00000000E+00  3.10357215E-01  0.00000000E+00  0.00000000E+00  7.17229454E-01
  0.00000000E+00  0.00000000E+00  1.00000000E+00  0.00000000E+00  0.00000000E+00
  0.00000000E+00  0.00000000E+00  0.00000000E+00  0.00000000E+00  0.00000000E+00
  0.00000000E+00  8.77547625E-02  0.00000000E+00  0.00000000E+00  3.10357215E-01
  0.00000000E+00  0.00000000E+00  7.17229454E-01  0.00000000E+00  0.00000000E+00
  1.00000000E+00 -3.93850786E-34  4.06333797E-34  0.00000000E+00  0.00000000E+00
  0.00000000E+00  0.00000000E+00  2.25585098E-02  0.00000000E+00  0.00000000E+00
  9.06096241E-02  0.00000000E+00  0.00000000E+00  2.79452892E-01  0.00000000E+00
  0.00000000E+00  6.79509180E-01  0.00000000E+00  0.00000000E+00  1.00000000E+00
  0.00000000E+00  0.00000000E+00  0.00000000E+00  0.00000000E+00  0.00000000E+00
  0.00000000E+00  0.00000000E+00  2.25585098E-02  0.00000000E+00  0.00000000E+00
  9.06096241E-02  0.00000000E+00  0.00000000E+00  2.79452892E-01  0.00000000E+00
  0.00000000E+00  6.79509180E-01  0.00000000E+00  0.00000000E+00  1.00000000E+00
  0.00000000E+00  0.00000000E+00  0.00000000E+00  0.00000000E+00  0.00000000E+00
  0.00000000E+00  0.00000000E+00  0.00000000E+00  2.25585098E-02  0.00000000E+00
  0.00000000E+00  9.06096241E-02  0.00000000E+00  0.00000000E+00  2.79452892E-01
  0.00000000E+00  0.00000000E+00  6.79509180E-01  0.00000000E+00  0.00000000E+00
  1.00000000E+00  0.00000000E+00  0.00000000E+00  0.00000000E+00  0.00000000E+00
  0.00000000E+00  0.00000000E+00  0.00000000E+00  0.00000000E+00  0.00000000E+00
  0.00000000E+00  0.00000000E+00  0.00000000E+00  0.00000000E+00  0.00000000E+00
  0.00000000E+00  0.00000000E+00  0.00000000E+00  0.00000000E+00  2.65238906E-33
  0.00000000E+00  0.00000000E+00  1.00000000E+00  0.00000000E+00  0.00000000E+00
  0.00000000E+00  0.00000000E+00  0.00000000E+00  0.00000000E+00  0.00000000E+00
  0.00000000E+00  0.00000000E+00  0.00000000E+00  0.00000000E+00  0.00000000E+00
  0.00000000E+00  0.00000000E+00  0.00000000E+00  0.00000000E+00  0.00000000E+00
  0.00000000E+00  0.00000000E+00  0.00000000E+00 -4.59407262E-33  0.00000000E+00
  1.00000000E+00  0.00000000E+00  0.00000000E+00  0.00000000E+00  0.00000000E+00
  0.00000000E+00  0.00000000E+00  0.00000000E+00  0.00000000E+00  0.00000000E+00
  0.00000000E+00  0.00000000E+00  0.00000000E+00  0.00000000E+00  0.00000000E+00
  0.00000000E+00  0.00000000E+00  0.00000000E+00  0.00000000E+00  0.00000000E+00
  0.00000000E+00  0.00000000E+00  0.00000000E+00  0.00000000E+00  1.00000000E+00
  1.38968444E-18 -8.53833781E-18  1.25234862E-17 -6.44191462E-18  1.52278986E-18
 -5.49141604E-18  0.00000000E+00  0.00000000E+00  0.00000000E+00  0.00000000E+00
  0.00000000E+00  0.00000000E+00  0.00000000E+00  0.00000000E+00  0.00000000E+00
  0.00000000E+00  0.00000000E+00  0.00000000E+00 -4.59407262E-33  0.00000000E+00
  0.00000000E+00  9.91611210E-18  0.00000000E+00  0.00000000E+00  1.00000000E+00
  0.00000000E+00  0.00000000E+00  0.00000000E+00  0.00000000E+00  0.00000000E+00
  0.00000000E+00  0.00000000E+00  0.00000000E+00  0.00000000E+00  0.00000000E+00
  0.00000000E+00  0.00000000E+00  0.00000000E+00  0.00000000E+00  0.00000000E+00
  0.00000000E+00  0.00000000E+00  0.00000000E+00  0.00000000E+00 -4.59407262E-33
  0.00000000E+00  0.00000000E+00  0.00000000E+00  0.00000000E+00  0.00000000E+00
  1.00000000E+00  0.00000000E+00  0.00000000E+00  0.00000000E+00  0.00000000E+00
  0.00000000E+00  0.00000000E+00  0.00000000E+00  0.00000000E+00  0.00000000E+00
  0.00000000E+00  0.00000000E+00  0.00000000E+00  3.75809916E-32  0.00000000E+00
  0.00000000E+00  0.00000000E+00  0.00000000E+00  0.00000000E+00  0.00000000E+00
  0.00000000E+00  0.00000000E+00  6.32115949E-01  0.00000000E+00  0.00000000E+00
  4.07694584E-17  0.00000000E+00  1.00000000E+00  0.00000000E+00  0.00000000E+00
  0.00000000E+00  0.00000000E+00  0.00000000E+00  0.00000000E+00  0.00000000E+00
  0.00000000E+00  0.00000000E+00  0.00000000E+00  0.00000000E+00  0.00000000E+00
  0.00000000E+00  0.00000000E+00 -6.50921869E-32  0.00000000E+00  0.00000000E+00
  0.00000000E+00  0.00000000E+00  0.00000000E+00  0.00000000E+00  0.00000000E+00
  6.32115949E-01  0.00000000E+00  0.00000000E+00  0.00000000E+00  0.00000000E+00
  1.00000000E+00  0.00000000E+00  0.00000000E+00  0.00000000E+00  0.00000000E+00
  0.00000000E+00  0.00000000E+00  0.00000000E+00  0.00000000E+00  0.00000000E+00
  0.00000000E+00  0.00000000E+00  0.00000000E+00  0.00000000E+00  0.00000000E+00
  0.00000000E+00  0.00000000E+00  0.00000000E+00  0.00000000E+00  0.00000000E+00
  0.00000000E+00  0.00000000E+00  0.00000000E+00  0.00000000E+00  6.32115949E-01
  0.00000000E+00  0.00000000E+00  0.00000000E+00  0.00000000E+00  1.00000000E+00
  6.49502954E-19 -9.25808197E-19 -5.41362541E-18 -4.06739930E-17 -3.94321572E-17
 -8.88723821E-18  0.00000000E+00  0.00000000E+00  0.00000000E+00  0.00000000E+00
  0.00000000E+00  0.00000000E+00 -6.50921869E-32  0.00000000E+00  0.00000000E+00
  0.00000000E+00  0.00000000E+00  0.00000000E+00  0.00000000E+00  0.00000000E+00
  0.00000000E+00  1.86028531E-18  0.00000000E+00  0.00000000E+00  6.32115949E-01
  0.00000000E+00  1.73531962E-17  0.00000000E+00  0.00000000E+00  1.00000000E+00
  0.00000000E+00  0.00000000E+00  0.00000000E+00  0.00000000E+00  0.00000000E+00
  0.00000000E+00  0.00000000E+00  0.00000000E+00  0.00000000E+00  0.00000000E+00
  0.00000000E+00  0.00000000E+00  0.00000000E+00 -6.50921869E-32  0.00000000E+00
  0.00000000E+00  0.00000000E+00  0.00000000E+00  0.00000000E+00  0.00000000E+00
  0.00000000E+00  0.00000000E+00  0.00000000E+00  0.00000000E+00  0.00000000E+00
  6.32115949E-01  0.00000000E+00  0.00000000E+00  0.00000000E+00  0.00000000E+00
  1.00000000E+00  0.00000000E+00  0.00000000E+00  0.00000000E+00  0.00000000E+00
  0.00000000E+00  0.00000000E+00  5.50290189E-33  0.00000000E+00  0.00000000E+00
  0.00000000E+00  0.00000000E+00  0.00000000E+00  0.00000000E+00  0.00000000E+00
  0.00000000E+00  2.21869890E-32  0.00000000E+00  0.00000000E+00  0.00000000E+00
  0.00000000E+00  0.00000000E+00  1.93385402E-01  0.00000000E+00  0.00000000E+00
 -5.66149799E-19  0.00000000E+00  6.32296255E-01  0.00000000E+00  0.00000000E+00
  8.68944971E-18  0.00000000E+00  1.00000000E+00  0.00000000E+00  0.00000000E+00
  0.00000000E+00  0.00000000E+00  0.00000000E+00  0.00000000E+00  0.00000000E+00
  0.00000000E+00 -9.53130567E-33  0.00000000E+00  0.00000000E+00  0.00000000E+00
  0.00000000E+00  0.00000000E+00  0.00000000E+00  0.00000000E+00  0.00000000E+00
 -3.84289923E-32  0.00000000E+00  0.00000000E+00  0.00000000E+00  0.00000000E+00
  1.93385402E-01  0.00000000E+00  0.00000000E+00  0.00000000E+00  0.00000000E+00
  6.32296255E-01  0.00000000E+00  0.00000000E+00  0.00000000E+00  0.00000000E+00
  1.00000000E+00  0.00000000E+00  0.00000000E+00  0.00000000E+00  0.00000000E+00
  0.00000000E+00  0.00000000E+00  0.00000000E+00  0.00000000E+00  0.00000000E+00
  0.00000000E+00  0.00000000E+00  0.00000000E+00  0.00000000E+00  0.00000000E+00
  0.00000000E+00  0.00000000E+00  0.00000000E+00  0.00000000E+00  0.00000000E+00
  0.00000000E+00  0.00000000E+00  0.00000000E+00  0.00000000E+00  1.93385402E-01
  0.00000000E+00  0.00000000E+00  0.00000000E+00  0.00000000E+00  6.32296255E-01
  0.00000000E+00  0.00000000E+00  0.00000000E+00  0.00000000E+00  1.00000000E+00
 -8.41591070E-19 -4.11396189E-20 -9.96754888E-18 -1.88093244E-17  3.47758824E-17
  2.12363194E-17 -9.53130567E-33  0.00000000E+00  0.00000000E+00  0.00000000E+00
  0.00000000E+00  0.00000000E+00  0.00000000E+00  0.00000000E+00  0.00000000E+00
 -3.84289923E-32  0.00000000E+00  0.00000000E+00  0.00000000E+00  0.00000000E+00
  0.00000000E+00 -3.15239224E-18  0.00000000E+00  0.00000000E+00  1.93385402E-01
  0.00000000E+00 -6.69668904E-18  0.00000000E+00  0.00000000E+00  6.32296255E-01
  0.00000000E+00 -9.72534706E-19  0.00000000E+00  0.00000000E+00  1.00000000E+00
  0.00000000E+00  0.00000000E+00  0.00000000E+00  0.00000000E+00  0.00000000E+00
  0.00000000E+00  0.00000000E+00 -9.53130567E-33  0.00000000E+00  0.00000000E+00
  0.00000000E+00  0.00000000E+00  0.00000000E+00  0.00000000E+00  0.00000000E+00
  0.00000000E+00 -3.84289923E-32  0.00000000E+00  0.00000000E+00  0.00000000E+00
  0.00000000E+00  0.00000000E+00  0.00000000E+00  0.00000000E+00  0.00000000E+00
  1.93385402E-01  0.00000000E+00  0.00000000E+00  0.00000000E+00  0.00000000E+00
  6.32296255E-01  0.00000000E+00  0.00000000E+00  0.00000000E+00  0.00000000E+00
  1.00000000E+00  0.00000000E+00  0.00000000E+00  0.00000000E+00  0.00000000E+00
  0.00000000E+00  0.00000000E+00  0.00000000E+00  0.00000000E+00  0.00000000E+00
  0.00000000E+00  0.00000000E+00  0.00000000E+00  0.00000000E+00  0.00000000E+00
  0.00000000E+00  0.00000000E+00  0.00000000E+00  0.00000000E+00  1.25439718E-32
  0.00000000E+00  0.00000000E+00  3.73716341E-02  0.00000000E+00  0.00000000E+00
 -3.21803488E-20  0.00000000E+00  1.81967191E-01  0.00000000E+00  0.00000000E+00
  4.43091881E-18  0.00000000E+00  6.08606614E-01  0.00000000E+00  0.00000000E+00
 -1.20209645E-17  0.00000000E+00  1.00000000E+00  0.00000000E+00  0.00000000E+00
  0.00000000E+00  0.00000000E+00  0.00000000E+00  0.00000000E+00  0.00000000E+00
  0.00000000E+00  0.00000000E+00  0.00000000E+00  0.00000000E+00  0.00000000E+00
  0.00000000E+00  0.00000000E+00  0.00000000E+00  0.00000000E+00  0.00000000E+00
  0.00000000E+00  0.00000000E+00  0.00000000E+00 -2.17267965E-32  0.00000000E+00
  3.73716341E-02  0.00000000E+00  0.00000000E+00  0.00000000E+00  0.00000000E+00
  1.81967191E-01  0.00000000E+00  0.00000000E+00  0.00000000E+00  0.00000000E+00
  6.08606614E-01  0.00000000E+00  0.00000000E+00  0.00000000E+00  0.00000000E+00
  1.00000000E+00  0.00000000E+00  0.00000000E+00  0.00000000E+00  0.00000000E+00
  0.00000000E+00  0.00000000E+00  0.00000000E+00  0.00000000E+00  0.00000000E+00
  0.00000000E+00  0.00000000E+00  0.00000000E+00  0.00000000E+00  0.00000000E+00
  0.00000000E+00  0.00000000E+00  0.00000000E+00  0.00000000E+00  0.00000000E+00
  0.00000000E+00  0.00000000E+00  0.00000000E+00  0.00000000E+00  3.73716341E-02
  0.00000000E+00  0.00000000E+00  0.00000000E+00  0.00000000E+00  1.81967191E-01
  0.00000000E+00  0.00000000E+00  0.00000000E+00  0.00000000E+00  6.08606614E-01
  0.00000000E+00  0.00000000E+00  0.00000000E+00  0.00000000E+00  1.00000000E+00
  1.86803860E-20  1.85150742E-19 -5.38498527E-19  6.22228777E-18 -2.70407683E-17
  2.63786101E-17  0.00000000E+00  0.00000000E+00  0.00000000E+00  0.00000000E+00
  0.00000000E+00  0.00000000E+00  0.00000000E+00  0.00000000E+00  0.00000000E+00
  0.00000000E+00  0.00000000E+00  0.00000000E+00 -2.17267965E-32  0.00000000E+00
  0.00000000E+00 -6.48360076E-19  0.00000000E+00  0.00000000E+00  3.73716341E-02
  0.00000000E+00  2.50797509E-18  0.00000000E+00  0.00000000E+00  1.81967191E-01
  0.00000000E+00  4.58388043E-18  0.00000000E+00  0.00000000E+00  6.08606614E-01
  0.00000000E+00  2.47902802E-18  0.00000000E+00  0.00000000E+00  1.00000000E+00
  0.00000000E+00  0.00000000E+00  0.00000000E+00  0.00000000E+00  0.00000000E+00
  0.00000000E+00  0.00000000E+00  0.00000000E+00  0.00000000E+00  0.00000000E+00
  0.00000000E+00  0.00000000E+00  0.00000000E+00  0.00000000E+00  0.00000000E+00
  0.00000000E+00  0.00000000E+00  0.00000000E+00  0.00000000E+00 -2.17267965E-32
  0.00000000E+00  0.00000000E+00  0.00000000E+00  0.00000000E+00  0.00000000E+00
  3.73716341E-02  0.00000000E+00  0.00000000E+00  0.00000000E+00  0.00000000E+00
  1.81967191E-01  0.00000000E+00  0.00000000E+00  0.00000000E+00  0.00000000E+00
  6.08606614E-01  0.00000000E+00  0.00000000E+00  0.00000000E+00  0.00000000E+00
  1.00000000E+00  0.00000000E+00  0.00000000E+00  0.00000000E+00  0.00000000E+00
  0.00000000E+00  0.00000000E+00  0.00000000E+00  0.00000000E+00  0.00000000E+00
  0.00000000E+00  0.00000000E+00 -2.22044605E-16  0.00000000E+00  0.00000000E+00
 -2.22044605E-16  0.00000000E+00  0.00000000E+00  0.00000000E+00  0.00000000E+00
  0.00000000E+00  1.38777878E-17  0.00000000E+00  0.00000000E+00  0.00000000E+00
  0.00000000E+00  0.00000000E+00  0.00000000E+00  0.00000000E+00  0.00000000E+00
  0.00000000E+00  0.00000000E+00  0.00000000E+00  2.49178078E-32  0.00000000E+00
  0.00000000E+00  0.00000000E+00  0.00000000E+00  0.00000000E+00  0.00000000E+00
  0.00000000E+00  0.00000000E+00  1.00000000E+00  0.00000000E+00  0.00000000E+00
  0.00000000E+00  0.00000000E+00  0.00000000E+00  0.00000000E+00  3.36382679E-17
  0.00000000E+00  0.00000000E+00  1.68061872E-16  0.00000000E+00  0.00000000E+00
  9.18015751E-17  0.00000000E+00  0.00000000E+00  2.11272782E-17  0.00000000E+00
  0.00000000E+00 -1.29231644E-17  0.00000000E+00  0.00000000E+00  0.00000000E+00
  0.00000000E+00  0.00000000E+00  0.00000000E+00  0.00000000E+00  0.00000000E+00
  0.00000000E+00  0.00000000E+00  0.00000000E+00  0.00000000E+00 -3.52391017E-32
  0.00000000E+00  0.00000000E+00  1.01726524E-32  0.00000000E+00  0.00000000E+00
  0.00000000E+00  0.00000000E+00  0.00000000E+00  0.00000000E+00  0.00000000E+00
  1.00000000E+00  0.00000000E+00  0.00000000E+00  0.00000000E+00  0.00000000E+00
  0.00000000E+00  0.00000000E+00  0.00000000E+00 -2.18728833E-17  0.00000000E+00
  0.00000000E+00  5.70395699E-17  0.00000000E+00  0.00000000E+00  9.18015751E-17
  0.00000000E+00  0.00000000E+00 -6.62829739E-18  0.00000000E+00  0.00000000E+00
 -1.29231644E-17  0.00000000E+00  0.00000000E+00  0.00000000E+00  0.00000000E+00
  0.00000000E+00  0.00000000E+00  0.00000000E+00  0.00000000E+00  0.00000000E+00
  0.00000000E+00  0.00000000E+00  0.00000000E+00  0.00000000E+00  0.00000000E+00
  0.00000000E+00  1.01726524E-32  0.00000000E+00  0.00000000E+00  0.00000000E+00
  0.00000000E+00  0.00000000E+00  0.00000000E+00  0.00000000E+00  1.00000000E+00
  0.00000000E+00  0.00000000E+00  0.00000000E+00  0.00000000E+00  0.00000000E+00
  0.00000000E+00  0.00000000E+00  0.00000000E+00  6.56895645E-19  0.00000000E+00
  0.00000000E+00 -2.96265508E-17  0.00000000E+00  0.00000000E+00 -4.71362385E-19
  0.00000000E+00  0.00000000E+00  8.75814107E-18  0.00000000E+00  0.00000000E+00
  1.27303059E-18  0.00000000E+00  0.00000000E+00  0.00000000E+00  0.00000000E+00
  0.00000000E+00  0.00000000E+00  0.00000000E+00  0.00000000E+00  0.00000000E+00
  0.00000000E+00  0.00000000E+00 -3.21687515E-32  0.00000000E+00  0.00000000E+00
  0.00000000E+00  0.00000000E+00  0.00000000E+00  0.00000000E+00  0.00000000E+00
  0.00000000E+00 -9.25846538E-17  0.00000000E+00  0.00000000E+00  1.00000000E+00
  0.00000000E+00  0.00000000E+00  0.00000000E+00  0.00000000E+00  0.00000000E+00
  0.00000000E+00  0.00000000E+00  0.00000000E+00  0.00000000E+00  0.00000000E+00
  0.00000000E+00  0.00000000E+00  0.00000000E+00  0.00000000E+00  0.00000000E+00
  0.00000000E+00  0.00000000E+00  0.00000000E+00  0.00000000E+00  0.00000000E+00
  0.00000000E+00  0.00000000E+00  0.00000000E+00  0.00000000E+00  0.00000000E+00
  0.00000000E+00  0.00000000E+00  0.00000000E+00  0.00000000E+00  0.00000000E+00
  0.00000000E+00  0.00000000E+00  0.00000000E+00 -3.21687515E-32  0.00000000E+00
  0.00000000E+00  0.00000000E+00  0.00000000E+00  0.00000000E+00  0.00000000E+00
  0.00000000E+00  0.00000000E+00  0.00000000E+00  0.00000000E+00  0.00000000E+00
  1.00000000E+00  0.00000000E+00  0.00000000E+00  0.00000000E+00  0.00000000E+00
  0.00000000E+00  0.00000000E+00  5.55111512E-17  0.00000000E+00  0.00000000E+00
  0.00000000E+00  0.00000000E+00  0.00000000E+00 -5.55111512E-17  0.00000000E+00
  0.00000000E+00  2.77555756E-17  0.00000000E+00  0.00000000E+00  2.77555756E-17
  0.00000000E+00  0.00000000E+00  0.00000000E+00  0.00000000E+00  0.00000000E+00
  0.00000000E+00  0.00000000E+00  0.00000000E+00  0.00000000E+00  0.00000000E+00
  0.00000000E+00  0.00000000E+00  0.00000000E+00  0.00000000E+00  0.00000000E+00
 -3.93985135E-32  0.00000000E+00  0.00000000E+00  0.00000000E+00  0.00000000E+00
  0.00000000E+00  0.00000000E+00  0.00000000E+00 -2.49800181E-16  0.00000000E+00
  0.00000000E+00  0.00000000E+00  1.00000000E+00  0.00000000E+00  0.00000000E+00
  0.00000000E+00  0.00000000E+00  0.00000000E+00  0.00000000E+00  0.00000000E+00
 -7.46601337E-17  0.00000000E+00  0.00000000E+00 -5.64331308E-18  0.00000000E+00
  0.00000000E+00  3.37722216E-17  0.00000000E+00  0.00000000E+00 -3.70774063E-17
  0.00000000E+00  0.00000000E+00 -2.65255961E-17  0.00000000E+00  0.00000000E+00
  0.00000000E+00  0.00000000E+00  0.00000000E+00  0.00000000E+00  0.00000000E+00
  0.00000000E+00  0.00000000E+00  0.00000000E+00  0.00000000E+00  0.00000000E+00
  0.00000000E+00  0.00000000E+00  0.00000000E+00 -3.93985135E-32  0.00000000E+00
  0.00000000E+00  0.00000000E+00  0.00000000E+00  0.00000000E+00  0.00000000E+00
  0.00000000E+00  2.46305671E-16  0.00000000E+00  0.00000000E+00  0.00000000E+00
  1.00000000E+00  0.00000000E+00  0.00000000E+00  0.00000000E+00  0.00000000E+00
  0.00000000E+00  0.00000000E+00  0.00000000E+00  0.00000000E+00 -5.55111512E-17
  0.00000000E+00  0.00000000E+00 -3.33066907E-16  0.00000000E+00  0.00000000E+00
 -3.33066907E-16  0.00000000E+00  0.00000000E+00  0.00000000E+00  0.00000000E+00
  0.00000000E+00 -8.32667268E-17  0.00000000E+00  0.00000000E+00  0.00000000E+00
  0.00000000E+00  0.00000000E+00  0.00000000E+00  0.00000000E+00  0.00000000E+00
  0.00000000E+00  0.00000000E+00  0.00000000E+00  4.16948673E-32  0.00000000E+00
  0.00000000E+00  0.00000000E+00  0.00000000E+00  0.00000000E+00  0.00000000E+00
  0.00000000E+00  0.00000000E+00  5.38285937E-01  0.00000000E+00  0.00000000E+00
  4.34718644E-17  0.00000000E+00  0.00000000E+00  0.00000000E+00  1.00000000E+00
  0.00000000E+00  0.00000000E+00  0.00000000E+00  0.00000000E+00  0.00000000E+00
  0.00000000E+00  2.70763289E-17  0.00000000E+00  0.00000000E+00  1.36940159E-16
  0.00000000E+00  0.00000000E+00  2.28382099E-16  0.00000000E+00  0.00000000E+00
 -2.02338387E-17  0.00000000E+00  0.00000000E+00  5.42174446E-17  0.00000000E+00
  0.00000000E+00  0.00000000E+00  0.00000000E+00  0.00000000E+00  0.00000000E+00
  0.00000000E+00  0.00000000E+00  0.00000000E+00  0.00000000E+00  0.00000000E+00
  0.00000000E+00 -5.89654469E-32  0.00000000E+00  0.00000000E+00  1.70218583E-32
  0.00000000E+00  0.00000000E+00  0.00000000E+00  0.00000000E+00  0.00000000E+00
  0.00000000E+00  0.00000000E+00  5.38285937E-01  0.00000000E+00  0.00000000E+00
  0.00000000E+00  5.66838673E-17  0.00000000E+00  0.00000000E+00  1.00000000E+00
  0.00000000E+00  0.00000000E+00  0.00000000E+00  0.00000000E+00  0.00000000E+00
  0.00000000E+00  0.00000000E+00  2.70763289E-17  0.00000000E+00  0.00000000E+00
  1.92451310E-16  0.00000000E+00  0.00000000E+00  2.28382099E-16  0.00000000E+00
  0.00000000E+00 -2.02338387E-17  0.00000000E+00  0.00000000E+00  5.42174446E-17
  0.00000000E+00  0.00000000E+00  0.00000000E+00  0.00000000E+00  0.00000000E+00
  0.00000000E+00  0.00000000E+00  0.00000000E+00  0.00000000E+00  0.00000000E+00
  0.00000000E+00  0.00000000E+00  0.00000000E+00  0.00000000E+00  0.00000000E+00
  1.70218583E-32  0.00000000E+00  0.00000000E+00  0.00000000E+00  0.00000000E+00
  0.00000000E+00  0.00000000E+00  0.00000000E+00  5.38285937E-01  0.00000000E+00
  0.00000000E+00  0.00000000E+00 -8.28542541E-17  0.00000000E+00  0.00000000E+00
  1.00000000E+00  0.00000000E+00  0.00000000E+00  0.00000000E+00  0.00000000E+00
  0.00000000E+00  0.00000000E+00  0.00000000E+00  0.00000000E+00  3.08858968E-18
  0.00000000E+00  0.00000000E+00  2.68169501E-17  0.00000000E+00  0.00000000E+00
 -1.19929116E-17  0.00000000E+00  0.00000000E+00  1.83875481E-18  0.00000000E+00
  0.00000000E+00  9.40482705E-18  0.00000000E+00  0.00000000E+00  0.00000000E+00
  0.00000000E+00  0.00000000E+00  0.00000000E+00  0.00000000E+00  0.00000000E+00
  0.00000000E+00  0.00000000E+00  0.00000000E+00 -5.38278423E-32  0.00000000E+00
  0.00000000E+00  0.00000000E+00  0.00000000E+00  0.00000000E+00  0.00000000E+00
  0.00000000E+00  0.00000000E+00 -2.81214116E-18  0.00000000E+00  0.00000000E+00
  5.38285937E-01  0.00000000E+00  0.00000000E+00  0.00000000E+00 -4.22040870E-19
  0.00000000E+00  0.00000000E+00  1.00000000E+00  0.00000000E+00  0.00000000E+00
  0.00000000E+00  0.00000000E+00  0.00000000E+00  0.00000000E+00  0.00000000E+00
  0.00000000E+00  0.00000000E+00  0.00000000E+00  0.00000000E+00  0.00000000E+00
  0.00000000E+00  0.00000000E+00  0.00000000E+00  0.00000000E+00  0.00000000E+00
  0.00000000E+00  0.00000000E+00  0.00000000E+00  0.00000000E+00  0.00000000E+00
  0.00000000E+00  0.00000000E+00  0.00000000E+00  0.00000000E+00  0.00000000E+00
  0.00000000E+00  0.00000000E+00  0.00000000E+00  0.00000000E+00  0.00000000E+00
  0.00000000E+00 -5.38278423E-32  0.00000000E+00  0.00000000E+00  0.00000000E+00
  0.00000000E+00  0.00000000E+00  0.00000000E+00  0.00000000E+00  0.00000000E+00
  0.00000000E+00  0.00000000E+00  0.00000000E+00  5.38285937E-01  0.00000000E+00
  0.00000000E+00  0.00000000E+00  0.00000000E+00  0.00000000E+00  0.00000000E+00
  1.00000000E+00  0.00000000E+00  0.00000000E+00  0.00000000E+00  0.00000000E+00
  0.00000000E+00  0.00000000E+00 -2.77555756E-17  0.00000000E+00  0.00000000E+00
 -1.66533454E-16  0.00000000E+00  0.00000000E+00 -1.11022302E-16  0.00000000E+00
  0.00000000E+00  1.11022302E-16  0.00000000E+00  0.00000000E+00 -2.77555756E-17
  0.00000000E+00  0.00000000E+00  0.00000000E+00  0.00000000E+00  0.00000000E+00
  0.00000000E+00  0.00000000E+00  0.00000000E+00  0.00000000E+00  0.00000000E+00
  0.00000000E+00  0.00000000E+00  0.00000000E+00  0.00000000E+00  0.00000000E+00
 -6.59253737E-32  0.00000000E+00  0.00000000E+00  0.00000000E+00  0.00000000E+00
  0.00000000E+00  0.00000000E+00  0.00000000E+00  1.38777878E-16  0.00000000E+00
  0.00000000E+00  0.00000000E+00  5.38285937E-01  0.00000000E+00  0.00000000E+00
 -2.77555756E-16  0.00000000E+00  0.00000000E+00  0.00000000E+00  1.00000000E+00
  0.00000000E+00  0.00000000E+00  0.00000000E+00  0.00000000E+00  0.00000000E+00
  0.00000000E+00  0.00000000E+00  2.35063135E-17  0.00000000E+00  0.00000000E+00
  1.58267048E-16  0.00000000E+00  0.00000000E+00  6.71063290E-17  0.00000000E+00
  0.00000000E+00 -8.37364050E-17  0.00000000E+00  0.00000000E+00  2.77840251E-17
  0.00000000E+00  0.00000000E+00  0.00000000E+00  0.00000000E+00  0.00000000E+00
  0.00000000E+00  0.00000000E+00  0.00000000E+00  0.00000000E+00  0.00000000E+00
  0.00000000E+00  0.00000000E+00  0.00000000E+00  0.00000000E+00  0.00000000E+00
 -6.59253737E-32  0.00000000E+00  0.00000000E+00  0.00000000E+00  0.00000000E+00
  0.00000000E+00  0.00000000E+00  0.00000000E+00 -9.23112145E-17  0.00000000E+00
  0.00000000E+00  0.00000000E+00  5.38285937E-01  0.00000000E+00  0.00000000E+00
  2.75947844E-16  0.00000000E+00  0.00000000E+00  0.00000000E+00  1.00000000E+00
  0.00000000E+00  0.00000000E+00  0.00000000E+00  0.00000000E+00  0.00000000E+00
  0.00000000E+00  0.00000000E+00  0.00000000E+00  2.42861287E-17  0.00000000E+00
  0.00000000E+00 -2.22044605E-16  0.00000000E+00  0.00000000E+00  2.22044605E-16
  0.00000000E+00  0.00000000E+00 -1.11022302E-16  0.00000000E+00  0.00000000E+00
 -1.11022302E-16  0.00000000E+00  0.00000000E+00  0.00000000E+00  0.00000000E+00
  0.00000000E+00  0.00000000E+00  1.74558467E-32  0.00000000E+00  0.00000000E+00
  0.00000000E+00  0.00000000E+00  0.00000000E+00  0.00000000E+00  0.00000000E+00
  0.00000000E+00  0.00000000E+00  0.00000000E+00  0.00000000E+00  0.00000000E+00