                  Welcome to Q-Chem
     A Quantum Leap Into The Future Of Chemistry


 Q-Chem 5.4 (devel), Q-Chem, Inc., Pleasanton, CA (2021)

 E. Epifanovsky,  A. T. B. Gilbert,  Xintian Feng,  Joonho Lee,  Yuezhi Mao,  
 N. Mardirossian,  P. Pokhilko,  A. White,  M. Wormit,  M. P. Coons,  
 A. L. Dempwolff,  Zhengting Gan,  D. Hait,  P. R. Horn,  L. D. Jacobson,  
 I. Kaliman,  J. Kussmann,  A. W. Lange,  Ka Un Lao,  D. S. Levine,  Jie Liu,  
 S. C. McKenzie,  A. F. Morrison,  K. Nanda,  F. Plasser,  D. R. Rehn,  
 M. L. Vidal,  Zhi-Qiang You,  Ying Zhu,  B. Alam,  B. Albrecht,  
 A. Aldossary,  E. Alguire,  J. H. Andersen,  D. Barton,  K. Begam,  A. Behn,  
 Y. A. Bernard,  E. J. Berquist,  H. Burton,  A. Carreras,  K. Carter-Fenk,  
 R. Chakraborty,  A. D. Chien,  K. D. Closser,  V. Cofer-Shabica,  
 S. Dasgupta,  Jia Deng,  M. de Wergifosse,  M. Diedenhofen,  Hainam Do,  
 S. Ehlert,  Po-Tung Fang,  S. Fatehi,  Qingguo Feng,  T. Friedhoff,  
 J. Gayvert,  Qinghui Ge,  G. Gidofalvi,  M. Goldey,  J. Gomes,  
 C. Gonzalez-Espinoza,  S. Gulania,  A. Gunina,  M. W. D. Hanson-Heine,  
 P. H. P. Harbach,  A. W. Hauser,  M. F. Herbst,  M. Hernandez Vera,  
 M. Hodecker,  Z. C. Holden,  S. Houck,  Xunkun Huang,  Kerwin Hui,  
 B. C. Huynh,  M. Ivanov,  Hyunjun Ji,  Hanjie Jiang,  B. Kaduk,  S. Kaehler,  
 K. Khistyaev,  Jaehoon Kim,  P. Klunzinger,  Z. Koczor-Benda,  
 Joong Hoon Koh,  D. Kosenkov,  L. Koulias,  T. Kowalczyk,  C. M. Krauter,  
 K. Kue,  A. Kunitsa,  T. Kus,  A. Landau,  K. V. Lawler,  D. Lefrancois,  
 S. Lehtola,  Rain Li,  Yi-Pei Li,  Jiashu Liang,  M. Liebenthal,  
 Hung-Hsuan Lin,  You-Sheng Lin,  Fenglai Liu,  Kuan-Yu Liu,  
 M. Loipersberger,  A. Luenser,  A. Manjanath,  P. Manohar,  E. Mansoor,  
 S. F. Manzer,  Shan-Ping Mao,  A. V. Marenich,  T. Markovich,  S. Mason,  
 S. A. Maurer,  P. F. McLaughlin,  M. F. S. J. Menger,  J.-M. Mewes,  
 S. A. Mewes,  P. Morgante,  J. W. Mullinax,  K. J. Oosterbaan,  G. Paran,  
 Alexander C. Paul,  Suranjan K. Paul,  F. Pavosevic,  Zheng Pei,  S. Prager,  
 E. I. Proynov,  E. Ramos,  B. Rana,  A. E. Rask,  A. Rettig,  R. M. Richard,  
 F. Rob,  E. Rossomme,  T. Scheele,  M. Scheurer,  M. Schneider,  
 N. Sergueev,  S. M. Sharada,  W. Skomorowski,  D. W. Small,  C. J. Stein,  
 Yu-Chuan Su,  E. J. Sundstrom,  Zhen Tao,  J. Thirman,  T. Tsuchimochi,  
 N. M. Tubman,  S. P. Veccham,  O. Vydrov,  J. Wenzel,  J. Witte,  A. Yamada,  
 Kun Yao,  S. Yeganeh,  S. R. Yost,  A. Zech,  Igor Ying Zhang,  Xing Zhang,  
 Yu Zhang,  D. Zuev,  A. Aspuru-Guzik,  A. T. Bell,  N. A. Besley,  
 K. B. Bravaya,  B. R. Brooks,  D. Casanova,  Jeng-Da Chai,  S. Coriani,  
 C. J. Cramer,  A. E. DePrince, III,  R. A. DiStasio Jr.,  A. Dreuw,  
 B. D. Dunietz,  T. R. Furlani,  W. A. Goddard III,  S. Grimme,  
 S. Hammes-Schiffer,  T. Head-Gordon,  W. J. Hehre,  Chao-Ping Hsu,  
 T.-C. Jagau,  Yousung Jung,  A. Klamt,  Jing Kong,  D. S. Lambrecht,  
 WanZhen Liang,  N. J. Mayhall,  C. W. McCurdy,  J. B. Neaton,  
 C. Ochsenfeld,  J. A. Parkhill,  R. Peverati,  V. A. Rassolov,  Yihan Shao,  
 L. V. Slipchenko,  T. Stauch,  R. P. Steele,  J. E. Subotnik,  
 A. J. W. Thom,  A. Tkatchenko,  D. G. Truhlar,  T. Van Voorhis,  
 T. A. Wesolowski,  K. B. Whaley,  H. L. Woodcock III,  P. M. Zimmerman,  
 S. Faraji,  P. M. W. Gill,  M. Head-Gordon,  J. M. Herbert,  A. I. Krylov

 Additional authors for Version 5.4.1: 
 S. Kotaru,  Shaozhi Li,  Xiangyuan Li,  F. Matz,  A. Molle,  Haisheng Ren,  
 Yingli Su,  Hung-Yi Tsai,  C. Utku,  Fang Wang

 Contributors to earlier versions of Q-Chem not listed above: 
 R. D. Adamson,  B. Austin,  R. Baer,  J. Baker,  G. J. O. Beran,  
 K. Brandhorst,  S. T. Brown,  E. F. C. Byrd,  A. K. Chakraborty,  
 G. K. L. Chan,  Chun-Min Chang,  Yunqing Chen,  C.-L. Cheng,  
 Siu Hung Chien,  D. M. Chipman,  D. L. Crittenden,  H. Dachsel,  
 R. J. Doerksen,  A. D. Dutoi,  R. G. Edgar,  J. Fosso-Tande,  
 L. Fusti-Molnar,  D. Ghosh,  A. Ghysels,  A. Golubeva-Zadorozhnaya,  
 J. Gonthier,  M. S. Gordon,  S. R. Gwaltney,  G. Hawkins,  J. E. Herr,  
 A. Heyden,  S. Hirata,  E. G. Hohenstein,  G. Kedziora,  F. J. Keil,  
 C. Kelley,  Jihan Kim,  R. A. King,  R. Z. Khaliullin,  P. P. Korambath,  
 W. Kurlancheek,  A. Laurent,  A. M. Lee,  M. S. Lee,  S. V. Levchenko,  
 Ching Yeh Lin,  D. Liotard,  E. Livshits,  R. C. Lochan,  I. Lotan,  
 L. A. Martinez-Martinez,  P. E. Maslen,  N. Nair,  D. P. O'Neill,  
 D. Neuhauser,  E. Neuscamman,  C. M. Oana,  R. Olivares-Amaya,  R. Olson,  
 T. M. Perrine,  B. Peters,  P. A. Pieniazek,  A. Prociuk,  Y. M. Rhee,  
 J. Ritchie,  M. A. Rohrdanz,  E. Rosta,  N. J. Russ,  H. F. Schaefer III,  
 M. W. Schmidt,  N. E. Schultz,  S. Sharma,  N. Shenvi,  C. D. Sherrill,  
 A. C. Simmonett,  A. Sodt,  T. Stein,  D. Stuck,  K. S. Thanthiriwatte,  
 V. Vanovschi,  L. Vogt,  Tao Wang,  A. Warshel,  M. A. Watson,  
 C. F. Williams,  Q. Wu,  X. Xu,  Jun Yang,  W. Zhang,  Yan Zhao

 Please cite Q-Chem as follows:
 Y. Shao et al., Mol. Phys. 113, 184-215 (2015)
 DOI: 10.1080/00268976.2014.952696

 Q-Chem 5.4.1 for Intel X86 EM64T Linux

 Parts of Q-Chem use Armadillo 9.900.5 (Nocturnal Misbehaviour).
 http://arma.sourceforge.net/

Compilation information
-----------------------

 SVN revision             | 37731
 SVN branch               | trunk
 Last SVN revision        | 37729
 Last SVN author          | epif
 Hostname                 | osmium
 User                     | eric
 System                   | Linux-5.14.3-arch1-1
 Processor                | x86_64
 Compiler                 | GNU
 C compiler version       | 10.3.0
 CXX compiler version     | 10.3.0
 Fortran compiler version | 10.3.0
 Configuration time       | 2021-09-18 20:48:41


 Q-Chem begins on Sun Sep 19 10:14:55 2021  

 Host: osmium
0

     Scratch files written to /tmp/qchem/qchem2851232//
 Processing $rem in /home/eric/data/opt/apps/qchem/archive/r37729-g10.3.0-openblas/config/preferences:
 Processing $rem in /home/eric/.qchemrc:

 Checking the input file for inconsistencies... 	...done.

--------------------------------------------------------------
User input:
--------------------------------------------------------------
$comment
 Carbon atom (big basis), single point, RHF/aug-cc-pVQZ
$end

$rem
 method = hf
 basis = aug-cc-pvqz
 scf_final_print = 2
 print_general_basis = true
 print_orbitals = true
 molden_format = false
 gui = 2
$end

$molecule
 0 1
 C          -1.4152533224   0.2302217854   0.0000000000
$end
--------------------------------------------------------------
 ----------------------------------------------------------------
             Standard Nuclear Orientation (Angstroms)
    I     Atom           X                Y                Z
 ----------------------------------------------------------------
    1      C       0.0000000000     0.0000000000     0.0000000000
 ----------------------------------------------------------------
 Molecular Point Group                 Kh    NOp =***
 Largest Abelian Subgroup              D2h   NOp =  1
 Nuclear Repulsion Energy =           0.00000000 hartrees
 There are        3 alpha and        3 beta electrons
 Requested basis set is aug-cc-pVQZ
 Basis set in general basis input format:
-----------------------------------------------------------------------
$basis
C    0
S    9    1.000000
   3.39800000E+04    9.10000000E-05 
   5.08900000E+03    7.04000000E-04 
   1.15700000E+03    3.69300000E-03 
   3.26600000E+02    1.53600000E-02 
   1.06100000E+02    5.29290000E-02 
   3.81100000E+01    1.47043000E-01 
   1.47500000E+01    3.05631000E-01 
   6.03500000E+00    3.99345000E-01 
   2.53000000E+00    2.17051000E-01 
S    9    1.000000
   3.39800000E+04   -1.90000000E-05 
   5.08900000E+03   -1.51000000E-04 
   1.15700000E+03   -7.85000000E-04 
   3.26600000E+02   -3.32400000E-03 
   1.06100000E+02   -1.15120000E-02 
   3.81100000E+01   -3.41600000E-02 
   1.47500000E+01   -7.71730000E-02 
   6.03500000E+00   -1.41493000E-01 
   2.53000000E+00   -1.18019000E-01 
S    1    1.000000
   7.35500000E-01    1.00000000E+00 
S    1    1.000000
   2.90500000E-01    1.00000000E+00 
S    1    1.000000
   1.11100000E-01    1.00000000E+00 
S    1    1.000000
   4.14500000E-02    1.00000000E+00 
P    3    1.000000
   3.45100000E+01    5.37800000E-03 
   7.91500000E+00    3.61320000E-02 
   2.36800000E+00    1.42493000E-01 
P    1    1.000000
   8.13200000E-01    1.00000000E+00 
P    1    1.000000
   2.89000000E-01    1.00000000E+00 
P    1    1.000000
   1.00700000E-01    1.00000000E+00 
P    1    1.000000
   3.21800000E-02    1.00000000E+00 
D    1    1.000000
   1.84800000E+00    1.00000000E+00 
D    1    1.000000
   6.49000000E-01    1.00000000E+00 
D    1    1.000000
   2.28000000E-01    1.00000000E+00 
D    1    1.000000
   7.66000000E-02    1.00000000E+00 
F    1    1.000000
   1.41900000E+00    1.00000000E+00 
F    1    1.000000
   4.85000000E-01    1.00000000E+00 
F    1    1.000000
   1.87000000E-01    1.00000000E+00 
G    1    1.000000
   1.01100000E+00    1.00000000E+00 
G    1    1.000000
   4.24000000E-01    1.00000000E+00 
****
$end
-----------------------------------------------------------------------
 There are 20 shells and 80 basis functions

 Total QAlloc Memory Limit   2000 MB
 Mega-Array Size       188 MB
 MEM_STATIC part       192 MB
 A cutoff of  1.0D-08 yielded    210 shell pairs
 There are      3430 function pairs (      5985 Cartesian)
 Smallest overlap matrix eigenvalue = 4.28E-03

 Scale SEOQF with 1.000000e-01/1.000000e-01/1.000000e-01

 Standard Electronic Orientation quadrupole field applied
 Guess from superposition of atomic densities
 Warning:  Energy on first SCF cycle will be non-variational
 SAD guess density has 6.000000 electrons

 -----------------------------------------------------------------------
  General SCF calculation program by
  Eric Jon Sundstrom, Paul Horn, Yuezhi Mao, Dmitri Zuev, Alec White,
  David Stuck, Shaama M.S., Shane Yost, Joonho Lee, David Small,
  Daniel Levine, Susi Lehtola, Hugh Burton, Evgeny Epifanovsky,
  Bang C. Huynh
 -----------------------------------------------------------------------
 Hartree-Fock
 A restricted SCF calculation will be
 performed using DIIS
 SCF converges when DIIS error is below 1.0e-05
 ---------------------------------------
  Cycle       Energy         DIIS error
 ---------------------------------------
    1     -37.3025389840      2.12e-03  
    2     -37.5672540546      4.46e-03  
    3     -37.5891389191      2.87e-03  
    4     -37.6022120547      1.19e-03  
    5     -37.6045150022      1.42e-04  
    6     -37.6045418642      1.43e-05  
    7     -37.6045426406      2.43e-06  Convergence criterion met
 ---------------------------------------
 HF Exchange   Energy =  -5.00648281569465
 One-Electron  Energy = -50.31127094032652
 Total Coulomb Energy =  17.71321111543702
 Final Alpha MO Eigenvalues
            1           2           3           4           5           6
    1 -11.3649889  -0.7256291  -0.3584330   0.0188583   0.0188583   0.0834195
            7           8           9          10          11          12
    1   0.0899009   0.1082448   0.1082448   0.2323743   0.2323743   0.2416406
           13          14          15          16          17          18
    1   0.2416406   0.2454178   0.4453315   0.4639688   0.4639688   0.5032077
           19          20          21          22          23          24
    1   0.7441450   0.7441450   0.7622648   0.7622648   0.7735686   0.7735686
           25          26          27          28          29          30
    1   0.7756700   0.7756700   0.7774264   0.7911451   0.7911451   0.7984348
           31          32          33          34          35          36
    1   1.5914520   1.5914520   1.6086057   2.0899900   2.0899900   2.1075623
           37          38          39          40          41          42
    1   2.1183348   2.1183348   2.1386279   2.1386279   2.1508220   2.1508220
           43          44          45          46          47          48
    1   2.1548905   2.1972701   2.1972701   2.2315261   2.2315261   2.2447745
           49          50          51          52          53          54
    1   2.2451707   2.2451707   2.2831437   2.2831437   2.3066643   2.3066643
           55          56          57          58          59          60
    1   2.3146655   5.7671159   5.7671159   5.8142097   5.8738841   5.8738841
           61          62          63          64          65          66
    1   5.9211577   5.9211577   5.9548319   5.9548319   5.9750010   5.9750010
           67          68          69          70          71          72
    1   5.9817182   6.3280464   6.3280464   6.3828145   6.3828145   6.4013700
           73          74          75          76          77          78
    1   6.4181313   6.4181313   6.4730476   6.4730476   6.5066628   6.5066628
           79          80
    1   6.5180310  20.4225803
 Final Alpha MO Coefficients
            1           2           3           4           5           6
    1  -0.9933486  -0.0005543  -0.0000000   0.0000000   0.0000000   0.0267314
    2  -0.0001571  -0.3446148  -0.0000000   0.0000000   0.0000000   0.1174218
    3  -0.0157502  -0.2809555  -0.0000000   0.0000000   0.0000000   0.1743453
    4   0.0034795  -0.5919295   0.0000000  -0.0000000  -0.0000000  -0.2249848
    5  -0.0016069  -0.2714741  -0.0000000   0.0000000   0.0000000   1.3588243
    6   0.0004038  -0.0029319  -0.0000000  -0.0000000  -0.0000000  -1.8140341
    7   0.0000000  -0.0000000  -0.0000026   0.0966381   0.0000001   0.0000000
    8   0.0000000  -0.0000000   0.1665559   0.0000015   0.0000000  -0.0000000
    9  -0.0000000   0.0000000  -0.0000000  -0.0000001   0.0966381  -0.0000000
   10  -0.0000000  -0.0000000  -0.0000051   0.1833358   0.0000001   0.0000000
   11   0.0000000  -0.0000000   0.3254271   0.0000028   0.0000000  -0.0000000
   12   0.0000000  -0.0000000  -0.0000000  -0.0000001   0.1833358  -0.0000000
   13   0.0000000   0.0000000  -0.0000069   0.3001224   0.0000002   0.0000000
   14  -0.0000000  -0.0000000   0.4418473   0.0000047   0.0000000   0.0000000
   15  -0.0000000   0.0000000  -0.0000000  -0.0000002   0.3001224  -0.0000000
   16  -0.0000000  -0.0000000  -0.0000045   0.2377409   0.0000001   0.0000000
   17   0.0000000  -0.0000000   0.2889671   0.0000037   0.0000000  -0.0000000
   18  -0.0000000  -0.0000000  -0.0000000  -0.0000001   0.2377409  -0.0000000
   19   0.0000000  -0.0000000  -0.0000004   0.5280213   0.0000003  -0.0000000
   20  -0.0000000  -0.0000000   0.0237797   0.0000082   0.0000000   0.0000000
   21  -0.0000000  -0.0000000  -0.0000000  -0.0000003   0.5280213   0.0000000
   22  -0.0000000   0.0000001  -0.0000000  -0.0000000  -0.0000000   0.0000000
   23  -0.0000000   0.0000000  -0.0000000  -0.0000000   0.0000000   0.0000000
   24  -0.0001064   0.0011099  -0.0000000   0.0000000   0.0000000   0.0002439
   25   0.0000000  -0.0000000   0.0000000   0.0000000  -0.0000000  -0.0000000
   26  -0.0001843   0.0019224   0.0000000  -0.0000000   0.0000000   0.0004224
   27   0.0000000  -0.0000000   0.0000000   0.0000000   0.0000000   0.0000000
   28   0.0000000  -0.0000000   0.0000000   0.0000000  -0.0000000   0.0000000
   29   0.0005080  -0.0003340   0.0000000  -0.0000000  -0.0000000   0.0000031
   30  -0.0000000   0.0000000  -0.0000000  -0.0000000   0.0000000  -0.0000000
   31   0.0008799  -0.0005786   0.0000000  -0.0000000  -0.0000000   0.0000054
   32  -0.0000000   0.0000002  -0.0000000  -0.0000000  -0.0000000   0.0000003
   33  -0.0000000   0.0000000  -0.0000000  -0.0000000   0.0000000   0.0000000
   34  -0.0000498   0.0042902  -0.0000000  -0.0000000  -0.0000000   0.0053165
   35   0.0000000  -0.0000000  -0.0000000   0.0000000  -0.0000000  -0.0000000
   36  -0.0000862   0.0074309  -0.0000000   0.0000000   0.0000000   0.0092085
   37   0.0000000   0.0000001   0.0000000   0.0000000   0.0000000  -0.0000017
   38   0.0000000   0.0000000   0.0000000   0.0000000  -0.0000000  -0.0000000
   39   0.0000434   0.0021827   0.0000000   0.0000000  -0.0000000  -0.0311274
   40  -0.0000000  -0.0000000   0.0000000  -0.0000000   0.0000000   0.0000000
   41   0.0000752   0.0037806  -0.0000000  -0.0000000  -0.0000000  -0.0539143
   42  -0.0000000   0.0000000   0.0032676   0.0000001   0.0000000   0.0000000
   43   0.0000000   0.0000000  -0.0000000   0.0000000   0.0000001  -0.0000000
   44  -0.0000000   0.0000000   0.0025311   0.0000000   0.0000000   0.0000000
   45   0.0000000  -0.0000000  -0.0000000  -0.0000000   0.0012896  -0.0000000
   46  -0.0000000  -0.0000000  -0.0000000   0.0005265   0.0000000   0.0000000
   47  -0.0000000  -0.0000000  -0.0000000  -0.0000000   0.0016648   0.0000000
   48  -0.0000000   0.0000000  -0.0000002   0.0020390   0.0000000   0.0000000
   49  -0.0000000   0.0000000   0.0073758   0.0000002   0.0000000   0.0000000
   50   0.0000000  -0.0000000  -0.0000000   0.0000000   0.0000001   0.0000000
   51   0.0000000  -0.0000000   0.0057133   0.0000000   0.0000000   0.0000000
   52   0.0000000   0.0000000  -0.0000000  -0.0000000   0.0023980  -0.0000000
   53   0.0000000  -0.0000000  -0.0000001   0.0009790   0.0000000  -0.0000000
   54   0.0000000   0.0000000  -0.0000000  -0.0000000   0.0030958  -0.0000000
   55   0.0000000  -0.0000000  -0.0000003   0.0037915   0.0000000   0.0000000
   56   0.0000000  -0.0000000   0.0061352   0.0000005   0.0000000  -0.0000000
   57  -0.0000000  -0.0000000  -0.0000000   0.0000000   0.0000003   0.0000000
   58  -0.0000000  -0.0000000   0.0047523   0.0000000   0.0000000   0.0000000
   59  -0.0000000  -0.0000000  -0.0000000  -0.0000000   0.0072281  -0.0000000
   60   0.0000000   0.0000000  -0.0000001   0.0029509   0.0000000   0.0000000
   61  -0.0000000  -0.0000000  -0.0000000  -0.0000000   0.0093314   0.0000000
   62  -0.0000000   0.0000000  -0.0000003   0.0114286   0.0000000   0.0000000
   63   0.0000000   0.0000000  -0.0000000   0.0000000   0.0000000   0.0000000
   64   0.0000000   0.0000000  -0.0000000   0.0000000  -0.0000000   0.0000000
   65   0.0000000   0.0000000  -0.0000000   0.0000000   0.0000000   0.0000000
   66   0.0000000   0.0000000   0.0000000  -0.0000000  -0.0000000   0.0000000
   67   0.0000051   0.0000249  -0.0000000   0.0000000  -0.0000000   0.0000328
   68  -0.0000000  -0.0000000   0.0000000   0.0000000   0.0000000  -0.0000000
   69   0.0000076   0.0000372   0.0000000   0.0000000  -0.0000000   0.0000489
   70  -0.0000000  -0.0000000   0.0000000   0.0000000  -0.0000000  -0.0000000
   71   0.0000100   0.0000492   0.0000000  -0.0000000  -0.0000000   0.0000646
   72   0.0000000   0.0000000   0.0000000  -0.0000000  -0.0000000  -0.0000000
   73   0.0000000   0.0000000  -0.0000000  -0.0000000   0.0000000  -0.0000000
   74   0.0000000   0.0000000  -0.0000000  -0.0000000  -0.0000000  -0.0000000
   75   0.0000000   0.0000000  -0.0000000   0.0000000   0.0000000  -0.0000000
   76   0.0000013   0.0001510   0.0000000   0.0000000  -0.0000000  -0.0001143
   77  -0.0000000  -0.0000000  -0.0000000  -0.0000000  -0.0000000   0.0000000
   78   0.0000019   0.0002250   0.0000000   0.0000000  -0.0000000  -0.0001704
   79  -0.0000000  -0.0000000   0.0000000   0.0000000   0.0000000   0.0000000
   80   0.0000025   0.0002977  -0.0000000  -0.0000000  -0.0000000  -0.0002254
            7           8           9          10          11          12
    1  -0.0000000   0.0000000   0.0000000  -0.0000000   0.0000000   0.0000000
    2  -0.0000000  -0.0000000   0.0000000  -0.0000000   0.0000000   0.0000000
    3  -0.0000000   0.0000000   0.0000000  -0.0000000   0.0000000   0.0000000
    4   0.0000000  -0.0000000  -0.0000000   0.0000000  -0.0000000  -0.0000000
    5  -0.0000000   0.0000000   0.0000000  -0.0000000   0.0000000   0.0000000
    6   0.0000000  -0.0000000  -0.0000000   0.0000000  -0.0000000  -0.0000000
    7  -0.0000005   0.0799909  -0.0000000   0.0000000  -0.0000000   0.0000000
    8   0.0331096   0.0000012   0.0000000  -0.0000000  -0.0000000  -0.0000000
    9  -0.0000000   0.0000000   0.0799909   0.0000000  -0.0000000  -0.0000000
   10  -0.0000016   0.2028392  -0.0000000   0.0000000   0.0000000  -0.0000000
   11   0.1050065   0.0000032   0.0000000   0.0000000   0.0000000   0.0000000
   12  -0.0000000   0.0000000   0.2028392   0.0000000   0.0000000  -0.0000000
   13   0.0000003   0.1125879  -0.0000000   0.0000000  -0.0000000   0.0000000
   14  -0.0204122   0.0000017   0.0000000  -0.0000000  -0.0000000  -0.0000000
   15   0.0000000   0.0000000   0.1125879   0.0000000  -0.0000000  -0.0000000
   16  -0.0000082   0.8073274  -0.0000000   0.0000000   0.0000000  -0.0000000
   17   0.5296626   0.0000125   0.0000000   0.0000000   0.0000000   0.0000000
   18  -0.0000000   0.0000000   0.8073274  -0.0000000   0.0000000   0.0000000
   19   0.0000197  -1.1880709   0.0000001  -0.0000000   0.0000000   0.0000000
   20  -1.2681133  -0.0000185  -0.0000000  -0.0000000  -0.0000000  -0.0000000
   21   0.0000001  -0.0000001  -1.1880709  -0.0000000  -0.0000000  -0.0000000
   22  -0.0000000   0.0000000  -0.0000000  -0.0000000  -0.0000001   0.0091748
   23  -0.0000000   0.0000000   0.0000000  -0.0000001   0.0000000  -0.0000000
   24   0.0000000   0.0000000   0.0000000   0.0000000   0.0080254   0.0000000
   25  -0.0000000   0.0000000   0.0000000  -0.0092669   0.0000000  -0.0000000
   26   0.0000000   0.0000000   0.0000000  -0.0000000  -0.0046334  -0.0000003
   27   0.0000000   0.0000000  -0.0000000   0.0000000   0.0000010  -0.0716739
   28   0.0000000  -0.0000000  -0.0000000   0.0000010  -0.0000000   0.0000000
   29  -0.0000000  -0.0000000   0.0000000  -0.0000000  -0.0584542  -0.0000000
   30   0.0000000  -0.0000000  -0.0000000   0.0674971  -0.0000000   0.0000000
   31   0.0000000  -0.0000000  -0.0000000   0.0000000   0.0337485   0.0000022
   32  -0.0000000  -0.0000000   0.0000000  -0.0000000  -0.0000030   0.1963495
   33  -0.0000000   0.0000000  -0.0000000  -0.0000030   0.0000000  -0.0000000
   34   0.0000000  -0.0000000  -0.0000000   0.0000000   0.1683882   0.0000000
   35  -0.0000000   0.0000000   0.0000000  -0.1944379   0.0000000  -0.0000000
   36  -0.0000000   0.0000000   0.0000000  -0.0000000  -0.0972190  -0.0000061
   37  -0.0000000   0.0000000  -0.0000000   0.0000000   0.0000171  -1.0995414
   38   0.0000000  -0.0000000   0.0000000   0.0000171  -0.0000000   0.0000002
   39   0.0000000   0.0000000   0.0000000  -0.0000000  -0.9518909  -0.0000000
   40  -0.0000000  -0.0000000  -0.0000000   1.0991489  -0.0000000   0.0000000
   41   0.0000000  -0.0000000  -0.0000000   0.0000000   0.5495745   0.0000342
   42   0.0004711   0.0000001   0.0000000   0.0000000  -0.0000000  -0.0000000
   43  -0.0000000   0.0000000   0.0000000  -0.0000000   0.0000000  -0.0000000
   44   0.0003649   0.0000000   0.0000000   0.0000000  -0.0000000   0.0000000
   45  -0.0000000   0.0000000   0.0009302  -0.0000000  -0.0000000   0.0000000
   46  -0.0000000   0.0003797  -0.0000000   0.0000000   0.0000000   0.0000000
   47  -0.0000000   0.0000000   0.0012009   0.0000000   0.0000000  -0.0000000
   48  -0.0000000   0.0014708  -0.0000000  -0.0000000  -0.0000000   0.0000000
   49   0.0033596   0.0000003   0.0000000  -0.0000000  -0.0000000   0.0000000
   50  -0.0000000   0.0000000   0.0000001  -0.0000000  -0.0000000   0.0000000
   51   0.0026023   0.0000000   0.0000000  -0.0000000  -0.0000000  -0.0000000
   52  -0.0000000   0.0000000   0.0035148   0.0000000   0.0000000   0.0000000
   53  -0.0000000   0.0014349  -0.0000000  -0.0000000  -0.0000000  -0.0000000
   54  -0.0000000   0.0000000   0.0045376  -0.0000000   0.0000000  -0.0000000
   55  -0.0000002   0.0055574  -0.0000000  -0.0000000   0.0000000  -0.0000000
   56  -0.0050883   0.0000001   0.0000000   0.0000000   0.0000000  -0.0000000
   57   0.0000000   0.0000000   0.0000000   0.0000000   0.0000000  -0.0000000
   58  -0.0039414   0.0000000   0.0000000  -0.0000000   0.0000000   0.0000000
   59   0.0000000   0.0000000   0.0012323  -0.0000000  -0.0000000   0.0000000
   60   0.0000001   0.0005031  -0.0000000   0.0000000   0.0000000   0.0000000
   61   0.0000000   0.0000000   0.0015909  -0.0000000  -0.0000000   0.0000000
   62   0.0000002   0.0019484  -0.0000000   0.0000000  -0.0000000  -0.0000000
   63  -0.0000000  -0.0000000  -0.0000000  -0.0000000  -0.0000000   0.0008669
   64   0.0000000   0.0000000  -0.0000000  -0.0000000  -0.0000000  -0.0000000
   65   0.0000000   0.0000000   0.0000000  -0.0000000   0.0000000   0.0003277
   66   0.0000000   0.0000000  -0.0000000  -0.0000000   0.0000000  -0.0000000
   67  -0.0000000   0.0000000   0.0000000   0.0000000   0.0003858  -0.0000000
   68  -0.0000000   0.0000000  -0.0000000  -0.0002440   0.0000000  -0.0000000
   69  -0.0000000   0.0000000  -0.0000000   0.0000000   0.0003450  -0.0000000
   70   0.0000000  -0.0000000   0.0000000  -0.0006455   0.0000000  -0.0000000
   71  -0.0000000  -0.0000000  -0.0000000  -0.0000000  -0.0004564  -0.0000001
   72   0.0000000  -0.0000000   0.0000000   0.0000000   0.0000002  -0.0054244
   73   0.0000000  -0.0000000   0.0000000   0.0000002   0.0000000   0.0000000
   74   0.0000000   0.0000000  -0.0000000   0.0000000  -0.0000001  -0.0020502
   75  -0.0000000  -0.0000000   0.0000000   0.0000000  -0.0000000   0.0000000
   76   0.0000000  -0.0000000  -0.0000000  -0.0000000  -0.0022744   0.0000000
   77   0.0000000   0.0000000   0.0000000   0.0014384  -0.0000000   0.0000000
   78  -0.0000000   0.0000000   0.0000000  -0.0000000  -0.0020343   0.0000001
   79   0.0000000   0.0000000  -0.0000000   0.0038058  -0.0000000   0.0000000
   80   0.0000000   0.0000000   0.0000000   0.0000000   0.0026911   0.0000003
           13          14          15          16          17          18
    1  -0.0000000   0.0045690   0.0000000   0.0000000   0.0000000   0.0822660
    2  -0.0000000   0.0094721   0.0000000  -0.0000000  -0.0000000  -0.0935872
    3  -0.0000000   0.0229797   0.0000000   0.0000000   0.0000000   0.2759589
    4   0.0000000  -0.0737164  -0.0000000  -0.0000000  -0.0000000  -2.6525564
    5  -0.0000000   0.1672580   0.0000000   0.0000000   0.0000000   3.7277287
    6   0.0000000  -0.1384662  -0.0000000  -0.0000000  -0.0000000  -1.5459784
    7   0.0000000  -0.0000000   0.0000022  -0.1550826   0.0000000   0.0000000
    8   0.0000000  -0.0000000  -0.1385489  -0.0000024  -0.0000000  -0.0000000
    9   0.0000000   0.0000000   0.0000000  -0.0000000  -0.1550826  -0.0000000
   10   0.0000000   0.0000000   0.0000013  -0.1158803   0.0000000   0.0000000
   11  -0.0000000   0.0000000  -0.0841292  -0.0000018  -0.0000000  -0.0000000
   12  -0.0000000   0.0000000   0.0000000  -0.0000000  -0.1158803   0.0000000
   13   0.0000000  -0.0000000   0.0000157  -1.1345405   0.0000000   0.0000000
   14   0.0000000  -0.0000000  -1.0099147  -0.0000176  -0.0000000   0.0000000
   15   0.0000000   0.0000000   0.0000000  -0.0000000  -1.1345405   0.0000000
   16   0.0000000   0.0000000  -0.0000292   1.8001942  -0.0000001  -0.0000000
   17  -0.0000000   0.0000000   1.8772698   0.0000280   0.0000001  -0.0000000
   18  -0.0000000  -0.0000000  -0.0000001   0.0000001   1.8001942  -0.0000000
   19  -0.0000000   0.0000000   0.0000121  -0.7292053   0.0000000   0.0000000
   20   0.0000000  -0.0000000  -0.7802221  -0.0000113  -0.0000000   0.0000000
   21   0.0000000   0.0000000   0.0000000  -0.0000000  -0.7292053   0.0000000
   22  -0.0000000  -0.0000002  -0.0000000   0.0000000  -0.0000000   0.0000001
   23  -0.0091748  -0.0000000   0.0000000   0.0000000  -0.0000000   0.0000000
   24   0.0000000  -0.0045850  -0.0000000   0.0000000   0.0000000   0.0016710
   25   0.0000001   0.0000000   0.0000000  -0.0000000   0.0000000  -0.0000000
   26   0.0000000  -0.0079415  -0.0000000  -0.0000000   0.0000000   0.0028942
   27   0.0000000   0.0000020   0.0000000  -0.0000000   0.0000000  -0.0000007
   28   0.0716739   0.0000000  -0.0000000  -0.0000000   0.0000000  -0.0000000
   29  -0.0000000   0.0362942   0.0000000  -0.0000000  -0.0000000  -0.0130932
   30  -0.0000011  -0.0000000  -0.0000000   0.0000000  -0.0000000   0.0000000
   31  -0.0000000   0.0628633   0.0000000  -0.0000000  -0.0000000  -0.0226781
   32  -0.0000000  -0.0000053   0.0000000  -0.0000000  -0.0000000   0.0000022
   33  -0.1963495  -0.0000000   0.0000000   0.0000000   0.0000000   0.0000000
   34   0.0000000  -0.0986657  -0.0000000   0.0000000  -0.0000000   0.0415216
   35   0.0000031   0.0000000   0.0000000  -0.0000000   0.0000000  -0.0000000
   36   0.0000000  -0.1708940  -0.0000000   0.0000000   0.0000000   0.0719176
   37   0.0000002   0.0000295   0.0000000  -0.0000000   0.0000000  -0.0000017
   38   1.0995414   0.0000001   0.0000000   0.0000000   0.0000000  -0.0000000
   39  -0.0000001   0.5490112   0.0000000  -0.0000000   0.0000000  -0.0311770
   40  -0.0000171  -0.0000000  -0.0000000   0.0000000  -0.0000000   0.0000000
   41  -0.0000000   0.9509153  -0.0000000  -0.0000000  -0.0000000  -0.0540001
   42  -0.0000000  -0.0000000  -0.0012734  -0.0000001  -0.0000000   0.0000000
   43  -0.0000000   0.0000000   0.0000000  -0.0000000  -0.0000000  -0.0000000
   44  -0.0000000  -0.0000000  -0.0009863  -0.0000000  -0.0000000   0.0000000
   45  -0.0000000  -0.0000000   0.0000000  -0.0000000  -0.0009932  -0.0000000
   46  -0.0000000   0.0000000   0.0000000  -0.0004055   0.0000000   0.0000000
   47  -0.0000000   0.0000000   0.0000000  -0.0000000  -0.0012822   0.0000000
   48   0.0000000  -0.0000000   0.0000001  -0.0015703   0.0000000  -0.0000000
   49   0.0000000  -0.0000000  -0.0122551  -0.0000007  -0.0000000   0.0000000
   50   0.0000000   0.0000000   0.0000000  -0.0000000  -0.0000004   0.0000000
   51   0.0000000   0.0000000  -0.0094927  -0.0000001  -0.0000000   0.0000000
   52  -0.0000000   0.0000000   0.0000000  -0.0000000  -0.0090859  -0.0000000
   53   0.0000000  -0.0000000   0.0000001  -0.0037093   0.0000000  -0.0000000
   54   0.0000000  -0.0000000   0.0000000  -0.0000000  -0.0117298  -0.0000000
   55   0.0000000  -0.0000000   0.0000006  -0.0143660   0.0000000   0.0000000
   56  -0.0000000   0.0000000   0.0417661   0.0000019   0.0000000  -0.0000000
   57  -0.0000000   0.0000000  -0.0000000   0.0000000   0.0000010   0.0000000
   58   0.0000000   0.0000000   0.0323519   0.0000002   0.0000000   0.0000000
   59   0.0000000  -0.0000000  -0.0000000   0.0000000   0.0258865  -0.0000000
   60  -0.0000000  -0.0000000  -0.0000005   0.0105681  -0.0000000   0.0000000
   61   0.0000000   0.0000000  -0.0000000   0.0000000   0.0334193   0.0000000
   62  -0.0000000   0.0000000  -0.0000019   0.0409301  -0.0000000  -0.0000000
   63  -0.0000000  -0.0000000   0.0000000  -0.0000000  -0.0000000  -0.0000000
   64  -0.0006130  -0.0000000   0.0000000  -0.0000000  -0.0000000  -0.0000000
   65  -0.0000000  -0.0000000   0.0000000   0.0000000   0.0000000  -0.0000000
   66  -0.0006951  -0.0000000  -0.0000000  -0.0000000  -0.0000000  -0.0000000
   67   0.0000000  -0.0003754  -0.0000000   0.0000000  -0.0000000  -0.0000718
   68   0.0000000   0.0000000  -0.0000000   0.0000000  -0.0000000  -0.0000000
   69   0.0000000  -0.0005597  -0.0000000  -0.0000000  -0.0000000  -0.0001070
   70   0.0000000   0.0000000  -0.0000000  -0.0000000  -0.0000000  -0.0000000
   71   0.0000000  -0.0007404  -0.0000000  -0.0000000  -0.0000000  -0.0001415
   72   0.0000000   0.0000003  -0.0000000  -0.0000000   0.0000000   0.0000000
   73   0.0038356   0.0000000   0.0000000   0.0000000   0.0000000   0.0000000
   74   0.0000000   0.0000001   0.0000000   0.0000000   0.0000000   0.0000000
   75   0.0043492   0.0000000   0.0000000   0.0000000   0.0000000   0.0000000
   76  -0.0000000   0.0023776   0.0000000   0.0000000   0.0000000   0.0003712
   77  -0.0000001  -0.0000000   0.0000000  -0.0000000   0.0000000  -0.0000000
   78  -0.0000000   0.0035444  -0.0000000   0.0000000  -0.0000000   0.0005534
   79  -0.0000002  -0.0000000   0.0000000   0.0000000   0.0000000  -0.0000000
   80  -0.0000000   0.0046888   0.0000000   0.0000000   0.0000000   0.0007320
           19          20          21          22          23          24
    1   0.0000000  -0.0000000  -0.0000000   0.0000000  -0.0000000  -0.0000000
    2   0.0000000   0.0000000  -0.0000000  -0.0000000  -0.0000000  -0.0000000
    3   0.0000000   0.0000000  -0.0000000   0.0000000  -0.0000000  -0.0000000
    4  -0.0000000   0.0000000   0.0000000  -0.0000000   0.0000000   0.0000000
    5   0.0000000  -0.0000000  -0.0000000   0.0000000  -0.0000000  -0.0000000
    6  -0.0000000   0.0000000   0.0000000  -0.0000000   0.0000000   0.0000000
    7  -0.0000000  -0.0000000   0.0000000   0.0000000   0.0036440  -0.0000000
    8   0.0000000  -0.0000000  -0.0000000  -0.0000000   0.0000001  -0.0000000
    9  -0.0000000   0.0000000   0.0000000  -0.0000000  -0.0000000  -0.0036440
   10  -0.0000000  -0.0000000  -0.0000000  -0.0000000  -0.0074926   0.0000000
   11   0.0000000  -0.0000000   0.0000000   0.0000000  -0.0000001   0.0000000
   12  -0.0000000   0.0000000  -0.0000000  -0.0000000   0.0000000   0.0074926
   13  -0.0000000  -0.0000000   0.0000000   0.0000000   0.0455653  -0.0000002
   14  -0.0000000  -0.0000000  -0.0000000  -0.0000000   0.0000007  -0.0000000
   15  -0.0000000   0.0000000   0.0000000   0.0000000  -0.0000002  -0.0455653
   16   0.0000000   0.0000000  -0.0000000  -0.0000000  -0.0755066   0.0000003
   17   0.0000000   0.0000000   0.0000000   0.0000000  -0.0000012   0.0000000
   18   0.0000000  -0.0000000  -0.0000000  -0.0000000   0.0000003   0.0755066
   19  -0.0000000  -0.0000000   0.0000000   0.0000000   0.0255866  -0.0000001
   20  -0.0000000  -0.0000000  -0.0000000  -0.0000000   0.0000004  -0.0000000
   21  -0.0000000   0.0000000   0.0000000   0.0000000  -0.0000001  -0.0255866
   22  -0.0000000  -0.0000000  -0.0000000  -0.0000000   0.0000000   0.0000000
   23   0.0000000   0.0000000  -0.0000000   0.0000000   0.0000000  -0.0000000
   24   0.0000000  -0.0000000  -0.0000000   0.0000000  -0.0000000  -0.0000000
   25   0.0000000   0.0000000  -0.0000000   0.0000000   0.0000000   0.0000000
   26  -0.0000000   0.0000000   0.0000000  -0.0000000   0.0000000   0.0000000
   27  -0.0000000  -0.0000000   0.0000000   0.0000000  -0.0000000   0.0000000
   28  -0.0000000  -0.0000000   0.0000000  -0.0000000  -0.0000000   0.0000000
   29   0.0000000   0.0000000   0.0000000  -0.0000000   0.0000000   0.0000000
   30  -0.0000000  -0.0000000   0.0000000  -0.0000000  -0.0000000  -0.0000000
   31   0.0000000  -0.0000000  -0.0000000  -0.0000000  -0.0000000  -0.0000000
   32  -0.0000000  -0.0000000  -0.0000000  -0.0000000   0.0000000   0.0000000
   33   0.0000000   0.0000000  -0.0000000   0.0000000   0.0000000  -0.0000000
   34   0.0000000  -0.0000000  -0.0000000   0.0000000  -0.0000000  -0.0000000
   35   0.0000000   0.0000000  -0.0000000   0.0000000   0.0000000   0.0000000
   36  -0.0000000   0.0000000   0.0000000  -0.0000000   0.0000000   0.0000000
   37   0.0000000   0.0000000   0.0000000   0.0000000  -0.0000000  -0.0000000
   38  -0.0000000  -0.0000000   0.0000000  -0.0000000  -0.0000000   0.0000000
   39   0.0000000   0.0000000   0.0000000  -0.0000000   0.0000000   0.0000000
   40  -0.0000000  -0.0000000   0.0000000  -0.0000000  -0.0000000  -0.0000000
   41   0.0000000  -0.0000000  -0.0000000   0.0000000  -0.0000000  -0.0000000
   42  -0.0000003  -0.0000003  -0.0216549  -0.0135518   0.0000019  -0.0000000
   43  -0.0000006   0.0000005   0.0221300  -0.0353623   0.0000000  -0.0000010
   44   0.0000004   0.0000004   0.0279564   0.0174953   0.0000002  -0.0000000
   45   0.0236416  -0.0219500  -0.0000000  -0.0000000  -0.0000001  -0.0258762
   46   0.0268832   0.0289550  -0.0000004  -0.0000003   0.0105639  -0.0000000
   47  -0.0183127   0.0170024  -0.0000007   0.0000011  -0.0000001  -0.0334060
   48  -0.0069412  -0.0074761   0.0000010   0.0000006   0.0409138  -0.0000002
   49   0.0000017   0.0000018   0.1140887   0.0713976  -0.0000100   0.0000000
   50   0.0000030  -0.0000028  -0.1165918   0.1863060  -0.0000000   0.0000054
   51  -0.0000022  -0.0000024  -0.1472878  -0.0921739  -0.0000009   0.0000000
   52  -0.1251173   0.1161650   0.0000000   0.0000000   0.0000006   0.1358315
   53  -0.1422725  -0.1532368   0.0000023   0.0000014  -0.0554530   0.0000002
   54   0.0969154  -0.0899810   0.0000036  -0.0000058   0.0000007   0.1753577
   55   0.0367346   0.0395656  -0.0000053  -0.0000033  -0.2147685   0.0000009
   56  -0.0000089  -0.0000095  -0.5797027  -0.3627827   0.0000504  -0.0000000
   57  -0.0000155   0.0000145   0.5924216  -0.9466505   0.0000001  -0.0000274
   58   0.0000114   0.0000123   0.7483929   0.4683504   0.0000043  -0.0000001
   59   0.6459454  -0.5997273  -0.0000001  -0.0000000  -0.0000029  -0.6840046
   60   0.7345129   0.7911183  -0.0000117  -0.0000072   0.2792437  -0.0000012
   61  -0.5003471   0.4645468  -0.0000184   0.0000294  -0.0000037  -0.8830461
   62  -0.1896504  -0.2042659   0.0000270   0.0000170   1.0815062  -0.0000045
   63  -0.0000000  -0.0000000   0.0000000   0.0000000  -0.0000000  -0.0000000
   64   0.0000000   0.0000000  -0.0000000   0.0000000  -0.0000000   0.0000000
   65   0.0000000  -0.0000000  -0.0000000   0.0000000   0.0000000  -0.0000000
   66  -0.0000000   0.0000000  -0.0000000   0.0000000  -0.0000000  -0.0000000
   67  -0.0000000   0.0000000   0.0000000   0.0000000  -0.0000000   0.0000000
   68   0.0000000  -0.0000000   0.0000000  -0.0000000  -0.0000000  -0.0000000
   69   0.0000000   0.0000000  -0.0000000   0.0000000  -0.0000000   0.0000000
   70   0.0000000  -0.0000000   0.0000000   0.0000000  -0.0000000  -0.0000000
   71  -0.0000000  -0.0000000  -0.0000000  -0.0000000   0.0000000  -0.0000000
   72   0.0000000  -0.0000000  -0.0000000  -0.0000000   0.0000000  -0.0000000
   73  -0.0000000   0.0000000  -0.0000000   0.0000000  -0.0000000  -0.0000000
   74  -0.0000000   0.0000000   0.0000000  -0.0000000   0.0000000   0.0000000
   75   0.0000000  -0.0000000   0.0000000   0.0000000   0.0000000   0.0000000
   76   0.0000000  -0.0000000  -0.0000000  -0.0000000   0.0000000  -0.0000000
   77  -0.0000000   0.0000000  -0.0000000  -0.0000000   0.0000000   0.0000000
   78  -0.0000000  -0.0000000  -0.0000000  -0.0000000   0.0000000  -0.0000000
   79  -0.0000000  -0.0000000  -0.0000000  -0.0000000   0.0000000   0.0000000
   80   0.0000000   0.0000000   0.0000000   0.0000000   0.0000000   0.0000000
           25          26          27          28          29          30
    1   0.0000000  -0.0000000  -0.0000000  -0.0000000   0.0000000  -0.0115768
    2  -0.0000000   0.0000000  -0.0000000  -0.0000000   0.0000000  -0.0090893
    3   0.0000000  -0.0000000  -0.0000000  -0.0000000   0.0000000  -0.0491207
    4  -0.0000000   0.0000000   0.0000000  -0.0000000  -0.0000000   0.1837816
    5   0.0000000  -0.0000000  -0.0000000   0.0000000   0.0000000  -0.2105984
    6  -0.0000000   0.0000000   0.0000000  -0.0000000  -0.0000000   0.0873470
    7   0.0000000  -0.0000000   0.0000001   0.0000000   0.0000000  -0.0000000
    8   0.0000000   0.0000000  -0.0042554  -0.0000000   0.0000000  -0.0000000
    9   0.0000000   0.0000000   0.0000000   0.0000000   0.0000000  -0.0000000
   10   0.0000000   0.0000000  -0.0000001  -0.0000000   0.0000000   0.0000000
   11   0.0000000  -0.0000000   0.0093279  -0.0000000   0.0000000  -0.0000000
   12  -0.0000000  -0.0000000  -0.0000000   0.0000000   0.0000000   0.0000000
   13   0.0000000  -0.0000000   0.0000008   0.0000000  -0.0000000  -0.0000000
   14  -0.0000000   0.0000000  -0.0530880   0.0000000   0.0000000   0.0000000
   15  -0.0000000   0.0000000   0.0000000   0.0000000   0.0000000   0.0000000
   16   0.0000000   0.0000000  -0.0000014  -0.0000000  -0.0000000  -0.0000000
   17   0.0000000  -0.0000000   0.0927722   0.0000000  -0.0000000  -0.0000000
   18   0.0000000  -0.0000000  -0.0000000  -0.0000000  -0.0000000  -0.0000000
   19  -0.0000000  -0.0000000   0.0000005   0.0000000   0.0000000   0.0000000
   20  -0.0000000   0.0000000  -0.0314213  -0.0000000   0.0000000   0.0000000
   21  -0.0000000   0.0000000   0.0000000   0.0000000   0.0000000   0.0000000
   22  -0.0000009   0.0000000  -0.0000000  -0.0599815   0.0000003   0.0000016
   23   0.0000000   0.0000009   0.0000000   0.0000003   0.0599815   0.0000000
   24   0.0498752  -0.0000000  -0.0000000  -0.0000000  -0.0000000   0.0302595
   25   0.0000000   0.0575909   0.0000000   0.0000000  -0.0000009  -0.0000000
   26  -0.0287955   0.0000000   0.0000000   0.0000019  -0.0000000   0.0524110
   27   0.0000022  -0.0000000   0.0000000   0.1335638  -0.0000006  -0.0000035
   28  -0.0000000  -0.0000022  -0.0000000  -0.0000006  -0.1335638  -0.0000000
   29  -0.1201614   0.0000000   0.0000000   0.0000000   0.0000000  -0.0657964
   30  -0.0000000  -0.1387504  -0.0000000  -0.0000000   0.0000021   0.0000000
   31   0.0693752  -0.0000000  -0.0000000  -0.0000042   0.0000000  -0.1139628
   32  -0.0000209   0.0000001  -0.0000000  -1.3429075   0.0000058   0.0000360
   33   0.0000001   0.0000209   0.0000000   0.0000058   1.3429075   0.0000001
   34   1.1669760  -0.0000000  -0.0000000  -0.0000000  -0.0000001   0.6696883
   35   0.0000000   1.3475078   0.0000000   0.0000001  -0.0000209  -0.0000000
   36  -0.6737539   0.0000000   0.0000000   0.0000417  -0.0000001   1.1599342
   37   0.0000106  -0.0000000   0.0000000   0.6819409  -0.0000030  -0.0000183
   38  -0.0000000  -0.0000106  -0.0000000  -0.0000030  -0.6819409  -0.0000000
   39  -0.5909651   0.0000000   0.0000000   0.0000000   0.0000000  -0.3394151
   40  -0.0000000  -0.6823877  -0.0000000  -0.0000000   0.0000106   0.0000000
   41   0.3411939  -0.0000000  -0.0000000  -0.0000212   0.0000000  -0.5878842
   42  -0.0000000   0.0000000  -0.0335454   0.0000000   0.0000000   0.0000000
   43   0.0000000   0.0000000   0.0000000   0.0000000   0.0000000  -0.0000000
   44   0.0000000   0.0000000  -0.0259841   0.0000000   0.0000000  -0.0000000
   45  -0.0000000   0.0000000   0.0000000   0.0000000   0.0000000   0.0000000
   46   0.0000000  -0.0000000   0.0000004  -0.0000000  -0.0000000  -0.0000000
   47  -0.0000000   0.0000000   0.0000000  -0.0000000  -0.0000000   0.0000000
   48   0.0000000  -0.0000000   0.0000016   0.0000000  -0.0000000  -0.0000000
   49   0.0000000  -0.0000000   0.1759048  -0.0000000  -0.0000000   0.0000000
   50  -0.0000000  -0.0000000  -0.0000000  -0.0000000  -0.0000000   0.0000000
   51  -0.0000000  -0.0000000   0.1362553  -0.0000000  -0.0000000   0.0000000
   52   0.0000000  -0.0000000  -0.0000000   0.0000000  -0.0000000  -0.0000000
   53  -0.0000000   0.0000000  -0.0000021   0.0000000   0.0000000   0.0000000
   54   0.0000000  -0.0000000  -0.0000000   0.0000000   0.0000000  -0.0000000
   55  -0.0000000   0.0000000  -0.0000082  -0.0000000   0.0000000   0.0000000
   56  -0.0000000   0.0000000  -0.8829938   0.0000000   0.0000000   0.0000000
   57   0.0000000   0.0000000   0.0000000   0.0000000   0.0000000  -0.0000000
   58   0.0000000   0.0000000  -0.6839641   0.0000000   0.0000000  -0.0000000
   59  -0.0000000   0.0000000   0.0000001  -0.0000000  -0.0000000   0.0000000
   60   0.0000000  -0.0000000   0.0000106  -0.0000000  -0.0000000  -0.0000000
   61  -0.0000000   0.0000000   0.0000001  -0.0000000  -0.0000000   0.0000000
   62   0.0000000  -0.0000000   0.0000412   0.0000000  -0.0000000  -0.0000000
   63   0.0000000  -0.0000000  -0.0000000   0.0009005  -0.0000000  -0.0000000
   64   0.0000000  -0.0000000  -0.0000000  -0.0000000  -0.0006367  -0.0000000
   65  -0.0000000  -0.0000000  -0.0000000   0.0003403  -0.0000000  -0.0000000
   66  -0.0000000  -0.0000000  -0.0000000  -0.0000000  -0.0007220  -0.0000000
   67  -0.0004157   0.0000000   0.0000000   0.0000000   0.0000000  -0.0003866
   68   0.0000000  -0.0002629  -0.0000000  -0.0000000   0.0000000   0.0000000
   69  -0.0003718   0.0000000   0.0000000  -0.0000000   0.0000000  -0.0005763
   70  -0.0000000  -0.0006956  -0.0000000  -0.0000000   0.0000000   0.0000000
   71   0.0004919  -0.0000000  -0.0000000  -0.0000001   0.0000000  -0.0007623
   72  -0.0000007   0.0000000  -0.0000000  -0.0220302   0.0000001   0.0000012
   73  -0.0000000   0.0000007   0.0000000   0.0000001   0.0155777   0.0000000
   74   0.0000003   0.0000000  -0.0000000  -0.0083266   0.0000000   0.0000004
   75   0.0000000   0.0000001   0.0000000   0.0000001   0.0176635   0.0000000
   76   0.0092697  -0.0000000  -0.0000000  -0.0000000  -0.0000000   0.0096911
   77   0.0000000   0.0058626   0.0000000   0.0000000  -0.0000003  -0.0000000
   78   0.0082910  -0.0000000  -0.0000000   0.0000003  -0.0000000   0.0144466
   79   0.0000000   0.0155111   0.0000000   0.0000000  -0.0000007  -0.0000000
   80  -0.0109680   0.0000000   0.0000000   0.0000014  -0.0000000   0.0191111
           31          32          33          34          35          36
    1  -0.0000000  -0.0000000  -0.0000000   0.0000000   0.0000000  -0.5549635
    2  -0.0000000  -0.0000000   0.0000000   0.0000000   0.0000000  -1.2513191
    3  -0.0000000  -0.0000000  -0.0000000   0.0000000   0.0000000  -3.3004614
    4   0.0000000   0.0000000   0.0000000  -0.0000000  -0.0000000   4.4607755
    5  -0.0000000  -0.0000000  -0.0000000   0.0000000   0.0000000  -2.6495900
    6   0.0000000   0.0000000   0.0000000  -0.0000000  -0.0000000   0.7858217
    7   0.1903626   0.0000000   0.0000029  -0.0000000   0.0000000  -0.0000000
    8   0.0000030   0.0000000  -0.1895028   0.0000000   0.0000000   0.0000000
    9  -0.0000000   0.1903626   0.0000000  -0.0000000   0.0000000  -0.0000000
   10   1.3534717   0.0000003   0.0000206  -0.0000000  -0.0000000  -0.0000000
   11   0.0000210   0.0000001  -1.3245559   0.0000000  -0.0000000  -0.0000000
   12  -0.0000003   1.3534717   0.0000001  -0.0000000  -0.0000000   0.0000000
   13  -2.0602819  -0.0000004  -0.0000326   0.0000000   0.0000000   0.0000000
   14  -0.0000320  -0.0000001   2.0973127  -0.0000000   0.0000000   0.0000000
   15   0.0000004  -2.0602819  -0.0000001   0.0000000   0.0000000  -0.0000000
   16   1.1720320   0.0000003   0.0000186  -0.0000000  -0.0000000  -0.0000000
   17   0.0000182   0.0000000  -1.1954251   0.0000000  -0.0000000  -0.0000000
   18  -0.0000003   1.1720320   0.0000000  -0.0000000  -0.0000000   0.0000000
   19  -0.3554700  -0.0000001  -0.0000056   0.0000000   0.0000000   0.0000000
   20  -0.0000055  -0.0000000   0.3612939  -0.0000000   0.0000000   0.0000000
   21   0.0000001  -0.3554700  -0.0000000   0.0000000  -0.0000000  -0.0000000
   22   0.0000000  -0.0000000   0.0000000   0.0000000   0.0000000  -0.0000005
   23  -0.0000000  -0.0000000  -0.0000000  -0.0000000   0.0000000  -0.0000000
   24   0.0000000   0.0000000   0.0000000   0.0000000  -0.0000000  -0.0097948
   25  -0.0000000   0.0000000  -0.0000000  -0.0000000  -0.0000000   0.0000000
   26  -0.0000000   0.0000000  -0.0000000   0.0000000   0.0000000  -0.0169651
   27  -0.0000000   0.0000000  -0.0000000  -0.0000000  -0.0000000   0.0000028
   28   0.0000000  -0.0000000   0.0000000   0.0000000   0.0000000   0.0000000
   29  -0.0000000  -0.0000000  -0.0000000  -0.0000000   0.0000000   0.0528252
   30  -0.0000000  -0.0000000   0.0000000   0.0000000   0.0000000  -0.0000000
   31   0.0000000   0.0000000   0.0000000  -0.0000000  -0.0000000   0.0914960
   32   0.0000000  -0.0000000   0.0000000   0.0000000   0.0000000  -0.0000024
   33  -0.0000000  -0.0000000   0.0000000  -0.0000000   0.0000000  -0.0000000
   34   0.0000000   0.0000000   0.0000000   0.0000000  -0.0000000  -0.0452694
   35   0.0000000   0.0000000  -0.0000000  -0.0000000  -0.0000000   0.0000000
   36  -0.0000000  -0.0000000  -0.0000000   0.0000000   0.0000000  -0.0784089
   37  -0.0000000   0.0000000  -0.0000000  -0.0000000  -0.0000000   0.0000009
   38   0.0000000   0.0000000  -0.0000000   0.0000000  -0.0000000   0.0000000
   39   0.0000000   0.0000000  -0.0000000  -0.0000000   0.0000000   0.0170249
   40   0.0000000  -0.0000000   0.0000000   0.0000000   0.0000000  -0.0000000
   41  -0.0000000  -0.0000000   0.0000000  -0.0000000  -0.0000000   0.0294880
   42   0.0000005   0.0000000  -0.0108223  -0.0000000   0.0000000   0.0000000
   43   0.0000000   0.0000003   0.0000000   0.0000000  -0.0000000  -0.0000000
   44   0.0000000   0.0000000  -0.0083829   0.0000000  -0.0000000   0.0000000
   45  -0.0000000   0.0069301   0.0000000   0.0000000   0.0000000   0.0000000
   46   0.0028292   0.0000000   0.0000001  -0.0000000   0.0000000   0.0000000
   47  -0.0000000   0.0089467   0.0000000  -0.0000000   0.0000000  -0.0000000
   48   0.0109575   0.0000000   0.0000005   0.0000000   0.0000000   0.0000000
   49  -0.0000019  -0.0000000   0.0428616   0.0000000  -0.0000000   0.0000000
   50  -0.0000000  -0.0000010  -0.0000000  -0.0000000   0.0000000   0.0000000
   51  -0.0000002  -0.0000000   0.0332004  -0.0000000   0.0000000  -0.0000000
   52   0.0000000  -0.0261331  -0.0000000  -0.0000000  -0.0000000  -0.0000000
   53  -0.0106688  -0.0000000  -0.0000005   0.0000000   0.0000000   0.0000000
   54   0.0000000  -0.0337376  -0.0000000   0.0000000  -0.0000000   0.0000000
   55  -0.0413200  -0.0000000  -0.0000020  -0.0000000  -0.0000000  -0.0000000
   56   0.0000011   0.0000000  -0.0249628  -0.0000000   0.0000000  -0.0000000
   57   0.0000000   0.0000006   0.0000000   0.0000000  -0.0000000  -0.0000000
   58   0.0000001   0.0000000  -0.0193361   0.0000000  -0.0000000   0.0000000
   59  -0.0000000   0.0153615   0.0000000   0.0000000   0.0000000   0.0000000
   60   0.0062713   0.0000000   0.0000003  -0.0000000  -0.0000000  -0.0000000
   61  -0.0000000   0.0198316   0.0000000  -0.0000000   0.0000000  -0.0000000
   62   0.0242887   0.0000000   0.0000012   0.0000000   0.0000000   0.0000000
   63   0.0000000  -0.0000000  -0.0000000   0.0000000  -0.0000015   0.0000001
   64  -0.0000000  -0.0000000   0.0000000   0.0000032   0.0000000   0.0000000
   65  -0.0000000   0.0000000   0.0000000  -0.0000000   0.0000040   0.0000000
   66  -0.0000000  -0.0000000   0.0000000  -0.0000029  -0.0000000   0.0000000
   67   0.0000000  -0.0000000   0.0000000  -0.0000000  -0.1452627   0.0008104
   68   0.0000000  -0.0000000  -0.0000000  -0.1837444   0.0000000  -0.0000000
   69   0.0000000  -0.0000000   0.0000000   0.0000000   0.1299269   0.0012080
   70   0.0000000   0.0000000   0.0000000   0.0694488  -0.0000000  -0.0000000
   71  -0.0000000  -0.0000000  -0.0000000  -0.0000000  -0.0245539   0.0015981
   72  -0.0000000   0.0000000   0.0000000  -0.0000000   0.0000086  -0.0000003
   73   0.0000000   0.0000000  -0.0000000  -0.0000182  -0.0000000  -0.0000000
   74   0.0000000  -0.0000000  -0.0000000   0.0000001  -0.0000227  -0.0000001
   75   0.0000000   0.0000000  -0.0000000   0.0000161   0.0000000  -0.0000000
   76  -0.0000000   0.0000000  -0.0000000   0.0000000   0.8181901  -0.0022013
   77   0.0000000   0.0000000   0.0000000   1.0349377  -0.0000000   0.0000000
   78  -0.0000000   0.0000000  -0.0000000  -0.0000000  -0.7318114  -0.0032814
   79  -0.0000000  -0.0000000  -0.0000000  -0.3911697   0.0000000   0.0000000
   80   0.0000000   0.0000000   0.0000000   0.0000000   0.1382994  -0.0043409
           37          38          39          40          41          42
    1  -0.0000000   0.0000000  -0.0000000   0.0000000  -0.0000000   0.0000000
    2  -0.0000000   0.0000000  -0.0000000   0.0000000  -0.0000000   0.0000000
    3  -0.0000000   0.0000000  -0.0000000   0.0000000  -0.0000000   0.0000000
    4   0.0000000  -0.0000000   0.0000000  -0.0000000   0.0000000  -0.0000000
    5  -0.0000000   0.0000000  -0.0000000   0.0000000  -0.0000000   0.0000000
    6   0.0000000  -0.0000000   0.0000000  -0.0000000   0.0000000  -0.0000000
    7   0.0000000  -0.0000000  -0.0000000   0.0000000  -0.0000000   0.0000000
    8  -0.0000000  -0.0000000   0.0000000  -0.0000000  -0.0000000  -0.0000000
    9   0.0000000   0.0000000   0.0000000  -0.0000000   0.0000000   0.0000000
   10  -0.0000000   0.0000000   0.0000000   0.0000000   0.0000000  -0.0000000
   11  -0.0000000  -0.0000000   0.0000000   0.0000000  -0.0000000   0.0000000
   12   0.0000000   0.0000000  -0.0000000   0.0000000   0.0000000   0.0000000
   13   0.0000000  -0.0000000  -0.0000000  -0.0000000  -0.0000000   0.0000000
   14   0.0000000   0.0000000  -0.0000000   0.0000000   0.0000000  -0.0000000
   15  -0.0000000  -0.0000000   0.0000000  -0.0000000  -0.0000000  -0.0000000
   16  -0.0000000   0.0000000   0.0000000   0.0000000  -0.0000000  -0.0000000
   17  -0.0000000  -0.0000000   0.0000000  -0.0000000  -0.0000000   0.0000000
   18   0.0000000   0.0000000  -0.0000000   0.0000000   0.0000000   0.0000000
   19   0.0000000  -0.0000000  -0.0000000  -0.0000000   0.0000000  -0.0000000
   20   0.0000000   0.0000000  -0.0000000  -0.0000000  -0.0000000  -0.0000000
   21  -0.0000000  -0.0000000   0.0000000   0.0000000  -0.0000000  -0.0000000
   22  -0.0000000  -0.0000000   0.0000000   0.0000000   0.0043386  -0.0000000
   23   0.0000000  -0.0000000   0.0000000  -0.0000000   0.0000000   0.0043386
   24  -0.0000000   0.0000000  -0.0000000  -0.0025988  -0.0000000  -0.0000000
   25   0.0000000  -0.0000000   0.0030008  -0.0000000  -0.0000000  -0.0000001
   26  -0.0000000   0.0000000   0.0000000   0.0015004  -0.0000001  -0.0000000
   27   0.0000000   0.0000000  -0.0000000  -0.0000001  -0.0097380   0.0000000
   28  -0.0000000   0.0000000  -0.0000001   0.0000000  -0.0000000  -0.0097380
   29  -0.0000000  -0.0000000   0.0000000   0.0049124  -0.0000000   0.0000000
   30  -0.0000000  -0.0000000  -0.0056724   0.0000000   0.0000000   0.0000002
   31   0.0000000   0.0000000  -0.0000000  -0.0028362   0.0000003   0.0000000
   32  -0.0000000  -0.0000000   0.0000000   0.0000004   0.0342554  -0.0000001
   33   0.0000000  -0.0000000   0.0000004  -0.0000000   0.0000001   0.0342554
   34   0.0000000   0.0000000  -0.0000000  -0.0200698  -0.0000000  -0.0000000
   35   0.0000000   0.0000000   0.0231746  -0.0000001  -0.0000000  -0.0000005
   36  -0.0000000   0.0000000   0.0000000   0.0115873  -0.0000011  -0.0000000
   37   0.0000000   0.0000000  -0.0000000  -0.0000001  -0.0112721   0.0000000
   38  -0.0000000   0.0000000  -0.0000001   0.0000000  -0.0000000  -0.0112721
   39   0.0000000  -0.0000000   0.0000000   0.0066089   0.0000000   0.0000000
   40   0.0000000  -0.0000000  -0.0076314   0.0000000   0.0000000   0.0000002
   41   0.0000000  -0.0000000  -0.0000000  -0.0038157   0.0000004   0.0000000
   42   0.0000000   0.0000000  -0.0000000  -0.0000000   0.0000000   0.0000000
   43  -0.0000000  -0.0000000  -0.0000000  -0.0000000   0.0000000   0.0000000
   44   0.0000000   0.0000000   0.0000000   0.0000000  -0.0000000  -0.0000000
   45   0.0000000  -0.0000000   0.0000000  -0.0000000   0.0000000   0.0000000
   46  -0.0000000  -0.0000000   0.0000000  -0.0000000  -0.0000000  -0.0000000
   47  -0.0000000   0.0000000  -0.0000000  -0.0000000   0.0000000  -0.0000000
   48   0.0000000  -0.0000000  -0.0000000  -0.0000000  -0.0000000   0.0000000
   49   0.0000000  -0.0000000   0.0000000   0.0000000  -0.0000000  -0.0000000
   50   0.0000000   0.0000000   0.0000000  -0.0000000  -0.0000000  -0.0000000
   51  -0.0000000  -0.0000000  -0.0000000  -0.0000000   0.0000000   0.0000000
   52  -0.0000000   0.0000000  -0.0000000   0.0000000  -0.0000000  -0.0000000
   53  -0.0000000   0.0000000  -0.0000000   0.0000000   0.0000000   0.0000000
   54  -0.0000000  -0.0000000   0.0000000   0.0000000  -0.0000000   0.0000000
   55   0.0000000   0.0000000   0.0000000   0.0000000   0.0000000  -0.0000000
   56  -0.0000000   0.0000000   0.0000000  -0.0000000   0.0000000   0.0000000
   57  -0.0000000  -0.0000000  -0.0000000   0.0000000   0.0000000   0.0000000
   58   0.0000000   0.0000000   0.0000000   0.0000000  -0.0000000  -0.0000000
   59   0.0000000  -0.0000000   0.0000000  -0.0000000   0.0000000   0.0000000
   60   0.0000000  -0.0000000   0.0000000  -0.0000000  -0.0000000  -0.0000000
   61  -0.0000000   0.0000000  -0.0000000  -0.0000000   0.0000000  -0.0000000
   62  -0.0000000  -0.0000000  -0.0000000  -0.0000000  -0.0000000   0.0000000
   63   0.0699251   0.0002098   0.0000000   0.0000082   0.1864519  -0.0000003
   64  -0.0004450   0.1483336   0.0000087  -0.0000000   0.0000002   0.1318414
   65  -0.1850045  -0.0005551   0.0000000  -0.0000031   0.0704722  -0.0000001
   66   0.0003925  -0.1308179   0.0000011  -0.0000000   0.0000003   0.1494941
   67  -0.0000000   0.0000000  -0.0000003  -0.1111075  -0.0000000  -0.0000000
   68   0.0000000   0.0000020   0.0702706  -0.0000002  -0.0000000  -0.0000023
   69   0.0000057   0.0000000  -0.0000002  -0.0993776  -0.0000022  -0.0000000
   70   0.0000000  -0.0000069   0.1859185  -0.0000004  -0.0000000  -0.0000061
   71  -0.0000043  -0.0000000   0.0000003   0.1314642  -0.0000116  -0.0000000
   72  -0.3913956  -0.0011743  -0.0000001  -0.0000455  -1.0359630   0.0000018
   73   0.0024911  -0.8302754  -0.0000483   0.0000000  -0.0000013  -0.7325365
   74   1.0355353   0.0031069  -0.0000001   0.0000172  -0.3915572   0.0000007
   75  -0.0021969   0.7322341  -0.0000061   0.0000001  -0.0000015  -0.8306183
   76   0.0000000  -0.0000001   0.0000015   0.6190361   0.0000000   0.0000001
   77  -0.0000001  -0.0000114  -0.3915128   0.0000009   0.0000000   0.0000129
   78  -0.0000322  -0.0000001   0.0000013   0.5536827   0.0000122   0.0000001
   79  -0.0000002   0.0000387  -1.0358455   0.0000025   0.0000001   0.0000341
   80   0.0000243   0.0000001  -0.0000018  -0.7324534   0.0000644   0.0000000
           43          44          45          46          47          48
    1   0.0022982  -0.0000000  -0.0000000   0.0000000  -0.0000000  -0.0456651
    2   0.0052094  -0.0000000  -0.0000000   0.0000000  -0.0000000  -0.0883582
    3   0.0137751  -0.0000000  -0.0000000  -0.0000000  -0.0000000  -0.2183538
    4  -0.0182414   0.0000000   0.0000000   0.0000000   0.0000000   0.3234111
    5   0.0102315  -0.0000000  -0.0000000  -0.0000000  -0.0000000  -0.2172033
    6  -0.0029803   0.0000000   0.0000000   0.0000000   0.0000000   0.0657660
    7   0.0000000   0.0000000   0.0000000   0.0000000   0.0000000   0.0000000
    8   0.0000000   0.0000000   0.0000000   0.0000000  -0.0000000   0.0000000
    9   0.0000000   0.0000000  -0.0000000   0.0000000  -0.0000000   0.0000000
   10  -0.0000000   0.0000000   0.0000000  -0.0000000   0.0000000   0.0000000
   11  -0.0000000   0.0000000   0.0000000   0.0000000  -0.0000000   0.0000000
   12  -0.0000000   0.0000000   0.0000000   0.0000000  -0.0000000   0.0000000
   13   0.0000000  -0.0000000  -0.0000000   0.0000000  -0.0000000  -0.0000000
   14  -0.0000000  -0.0000000  -0.0000000  -0.0000000   0.0000000  -0.0000000
   15   0.0000000  -0.0000000  -0.0000000  -0.0000000   0.0000000  -0.0000000
   16  -0.0000000   0.0000000   0.0000000  -0.0000000   0.0000000   0.0000000
   17  -0.0000000   0.0000000   0.0000000   0.0000000  -0.0000000   0.0000000
   18  -0.0000000   0.0000000   0.0000000   0.0000000  -0.0000000   0.0000000
   19   0.0000000  -0.0000000  -0.0000000   0.0000000  -0.0000000  -0.0000000
   20   0.0000000  -0.0000000  -0.0000000  -0.0000000   0.0000000  -0.0000000
   21  -0.0000000  -0.0000000  -0.0000000  -0.0000000   0.0000000  -0.0000000
   22   0.0000001  -0.0000000   0.0000011   0.0669623   0.0000030   0.0000017
   23   0.0000000  -0.0000011  -0.0000000  -0.0000030   0.0669623   0.0000000
   24   0.0024409  -0.0000500  -0.0607024   0.0000000  -0.0000000   0.0324658
   25  -0.0000000  -0.0700931   0.0000578  -0.0000000  -0.0000010  -0.0000000
   26   0.0042278   0.0000289   0.0350465  -0.0000021  -0.0000000   0.0562324
   27  -0.0000003   0.0000000  -0.0000221  -1.4222755  -0.0000628  -0.0000381
   28  -0.0000000   0.0000221   0.0000000   0.0000628  -1.4222755  -0.0000001
   29  -0.0060100   0.0010172   1.2338812  -0.0000000   0.0000001  -0.7087522
   30   0.0000000   1.4247633  -0.0011745   0.0000001   0.0000221   0.0000000
   31  -0.0104096  -0.0005873  -0.7123816   0.0000442   0.0000001  -1.2275948
   32   0.0000010  -0.0000000   0.0000167   1.0782099   0.0000476   0.0000289
   33   0.0000000  -0.0000167  -0.0000000  -0.0000476   1.0782099   0.0000001
   34   0.0193400  -0.0007661  -0.9293459   0.0000000  -0.0000001   0.5376243
   35  -0.0000000  -1.0731162   0.0008846  -0.0000000  -0.0000168  -0.0000000
   36   0.0334978   0.0004423   0.5365581  -0.0000335  -0.0000000   0.9311926
   37  -0.0000003   0.0000000  -0.0000056  -0.3603457  -0.0000159  -0.0000096
   38  -0.0000000   0.0000056   0.0000000   0.0000159  -0.3603457  -0.0000000
   39  -0.0063705   0.0002575   0.3123432  -0.0000000   0.0000000  -0.1792284
   40   0.0000000   0.3606628  -0.0002973   0.0000000   0.0000056   0.0000000
   41  -0.0110340  -0.0001487  -0.1803314   0.0000112   0.0000000  -0.3104326
   42   0.0000000   0.0000000   0.0000000  -0.0000000  -0.0000000   0.0000000
   43   0.0000000   0.0000000  -0.0000000  -0.0000000  -0.0000000  -0.0000000
   44  -0.0000000  -0.0000000  -0.0000000  -0.0000000   0.0000000  -0.0000000
   45   0.0000000   0.0000000  -0.0000000  -0.0000000  -0.0000000  -0.0000000
   46   0.0000000  -0.0000000  -0.0000000  -0.0000000   0.0000000  -0.0000000
   47   0.0000000  -0.0000000   0.0000000   0.0000000   0.0000000   0.0000000
   48   0.0000000   0.0000000   0.0000000   0.0000000  -0.0000000   0.0000000
   49  -0.0000000  -0.0000000  -0.0000000  -0.0000000   0.0000000  -0.0000000
   50   0.0000000  -0.0000000   0.0000000   0.0000000   0.0000000   0.0000000
   51   0.0000000   0.0000000   0.0000000   0.0000000  -0.0000000   0.0000000
   52  -0.0000000  -0.0000000   0.0000000   0.0000000   0.0000000   0.0000000
   53   0.0000000   0.0000000   0.0000000   0.0000000  -0.0000000   0.0000000
   54  -0.0000000   0.0000000  -0.0000000  -0.0000000  -0.0000000  -0.0000000
   55  -0.0000000  -0.0000000  -0.0000000  -0.0000000   0.0000000  -0.0000000
   56   0.0000000   0.0000000   0.0000000   0.0000000  -0.0000000   0.0000000
   57  -0.0000000   0.0000000  -0.0000000  -0.0000000  -0.0000000  -0.0000000
   58  -0.0000000  -0.0000000  -0.0000000  -0.0000000   0.0000000  -0.0000000
   59   0.0000000   0.0000000  -0.0000000  -0.0000000  -0.0000000  -0.0000000
   60  -0.0000000  -0.0000000  -0.0000000  -0.0000000   0.0000000  -0.0000000
   61   0.0000000  -0.0000000   0.0000000   0.0000000   0.0000000   0.0000000
   62   0.0000000   0.0000000   0.0000000   0.0000000  -0.0000000   0.0000000
   63   0.0000092   0.0000000  -0.0000005  -0.0171535  -0.0000008  -0.0000009
   64   0.0000000   0.0000006  -0.0000000   0.0000005  -0.0121293  -0.0000000
   65   0.0000035   0.0000000   0.0000002  -0.0064834  -0.0000003  -0.0000004
   66   0.0000000   0.0000001   0.0000000   0.0000006  -0.0137534  -0.0000000
   67   0.0748123   0.0000059   0.0071400  -0.0000000   0.0000000  -0.0075700
   68  -0.0000000   0.0045157  -0.0000037   0.0000000   0.0000002   0.0000000
   69   0.1115236   0.0000053   0.0063862   0.0000002   0.0000000  -0.0112847
   70  -0.0000000   0.0119474  -0.0000098   0.0000000   0.0000006   0.0000000
   71   0.1475318  -0.0000070  -0.0084481   0.0000011   0.0000000  -0.0149282
   72  -0.0000509  -0.0000000   0.0000003   0.0112839   0.0000005   0.0000006
   73  -0.0000001  -0.0000003   0.0000000  -0.0000004   0.0079789   0.0000000
   74  -0.0000192  -0.0000000  -0.0000001   0.0042649   0.0000002   0.0000002
   75  -0.0000001  -0.0000000  -0.0000000  -0.0000004   0.0090472   0.0000000
   76  -0.4153129  -0.0000035  -0.0041896   0.0000000  -0.0000000   0.0052136
   77   0.0000000  -0.0026497   0.0000022  -0.0000000  -0.0000001  -0.0000000
   78  -0.6191119  -0.0000031  -0.0037473  -0.0000001  -0.0000000   0.0077720
   79   0.0000000  -0.0070106   0.0000058  -0.0000000  -0.0000004  -0.0000000
   80  -0.8190080   0.0000041   0.0049572  -0.0000007  -0.0000000   0.0102814
           49          50          51          52          53          54
    1   0.0000000  -0.0000000   0.0000000   0.0000000  -0.0000000  -0.0000000
    2   0.0000000  -0.0000000   0.0000000   0.0000000  -0.0000000  -0.0000000
    3   0.0000000  -0.0000000   0.0000000   0.0000000  -0.0000000  -0.0000000
    4  -0.0000000   0.0000000  -0.0000000  -0.0000000   0.0000000   0.0000000
    5   0.0000000  -0.0000000   0.0000000   0.0000000  -0.0000000  -0.0000000
    6  -0.0000000   0.0000000  -0.0000000  -0.0000000   0.0000000   0.0000000
    7  -0.0000000   0.0000000   0.0000000   0.0000000   0.0008565  -0.0000000
    8  -0.0000000  -0.0000000  -0.0000000  -0.0000000   0.0000000  -0.0000000
    9   0.0000000   0.0000000  -0.0000000   0.0000000  -0.0000000  -0.0008565
   10  -0.0000000   0.0000000   0.0000000   0.0000000   0.0368796  -0.0000006
   11  -0.0000000  -0.0000000  -0.0000000  -0.0000000   0.0000006  -0.0000000
   12   0.0000000   0.0000000  -0.0000000   0.0000000  -0.0000006  -0.0368796
   13   0.0000000  -0.0000000  -0.0000000  -0.0000000  -0.0695449   0.0000012
   14   0.0000000   0.0000000   0.0000000   0.0000000  -0.0000011   0.0000000
   15  -0.0000000  -0.0000000   0.0000000  -0.0000000   0.0000012   0.0695449
   16  -0.0000000   0.0000000   0.0000000   0.0000000   0.0398521  -0.0000007
   17  -0.0000000  -0.0000000  -0.0000000  -0.0000000   0.0000006  -0.0000000
   18   0.0000000   0.0000000  -0.0000000   0.0000000  -0.0000007  -0.0398521
   19   0.0000000  -0.0000000  -0.0000000  -0.0000000  -0.0114531   0.0000002
   20  -0.0000000  -0.0000000   0.0000000   0.0000000  -0.0000002   0.0000000
   21  -0.0000000  -0.0000000   0.0000000  -0.0000000   0.0000002   0.0114531
   22   0.0000000   0.0000000  -0.0000000  -0.0000000   0.0000000  -0.0000000
   23   0.0000000  -0.0000000   0.0000000   0.0000000   0.0000000  -0.0000000
   24  -0.0000000   0.0000000   0.0000000  -0.0000000   0.0000000   0.0000000
   25   0.0000000  -0.0000000  -0.0000000   0.0000000   0.0000000   0.0000000
   26  -0.0000000   0.0000000  -0.0000000  -0.0000000   0.0000000  -0.0000000
   27   0.0000000  -0.0000000   0.0000000  -0.0000000  -0.0000000   0.0000000
   28  -0.0000000   0.0000000  -0.0000000  -0.0000000  -0.0000000   0.0000000
   29   0.0000000  -0.0000000  -0.0000000  -0.0000000   0.0000000  -0.0000000
   30  -0.0000000   0.0000000  -0.0000000  -0.0000000  -0.0000000  -0.0000000
   31   0.0000000  -0.0000000   0.0000000   0.0000000  -0.0000000   0.0000000
   32  -0.0000000   0.0000000  -0.0000000   0.0000000   0.0000000  -0.0000000
   33   0.0000000  -0.0000000   0.0000000   0.0000000   0.0000000  -0.0000000
   34  -0.0000000   0.0000000   0.0000000   0.0000000  -0.0000000   0.0000000
   35   0.0000000  -0.0000000   0.0000000   0.0000000   0.0000000   0.0000000
   36  -0.0000000   0.0000000  -0.0000000  -0.0000000   0.0000000  -0.0000000
   37   0.0000000  -0.0000000   0.0000000  -0.0000000  -0.0000000   0.0000000
   38  -0.0000000   0.0000000  -0.0000000  -0.0000000  -0.0000000   0.0000000
   39   0.0000000  -0.0000000  -0.0000000  -0.0000000   0.0000000  -0.0000000
   40  -0.0000000   0.0000000  -0.0000000  -0.0000000  -0.0000000  -0.0000000
   41   0.0000000  -0.0000000   0.0000000   0.0000000  -0.0000000   0.0000000
   42   0.0000008  -0.0000010   0.0637140   0.0263340  -0.0000051   0.0000000
   43  -0.0000016  -0.0000014  -0.0430032   0.1040445  -0.0000000   0.0000028
   44  -0.0000011   0.0000013  -0.0822544  -0.0339970  -0.0000004   0.0000000
   45   0.0680665   0.0566935   0.0000000   0.0000000   0.0000012   0.0690332
   46  -0.0694350   0.0833641   0.0000013   0.0000005  -0.0281827   0.0000005
   47  -0.0527241  -0.0439146   0.0000013  -0.0000032   0.0000015   0.0891215
   48   0.0179280  -0.0215245  -0.0000030  -0.0000012  -0.1091511   0.0000018
   49  -0.0000099   0.0000119  -0.7498488  -0.3099240   0.0000598  -0.0000001
   50   0.0000194   0.0000161   0.5061038  -1.2244980   0.0000001  -0.0000325
   51   0.0000127  -0.0000153   0.9680506   0.4001102   0.0000051  -0.0000001
   52  -0.8049606  -0.6704620  -0.0000001  -0.0000000  -0.0000135  -0.8108813
   53   0.8211449  -0.9858714  -0.0000151  -0.0000061   0.3310409  -0.0000055
   54   0.6235198   0.5193376  -0.0000158   0.0000380  -0.0000175  -1.0468432
   55  -0.2120187   0.2545509   0.0000349   0.0000145   1.2821158  -0.0000214
   56   0.0000048  -0.0000058   0.3632183   0.1501237  -0.0000289   0.0000000
   57  -0.0000094  -0.0000078  -0.2451510   0.5931331  -0.0000000   0.0000157
   58  -0.0000062   0.0000075  -0.4689129  -0.1938089  -0.0000025   0.0000001
   59   0.3915317   0.3261117   0.0000000   0.0000000   0.0000065   0.3916981
   60  -0.3994037   0.4795264   0.0000073   0.0000030  -0.1599101   0.0000027
   61  -0.3032791  -0.2526051   0.0000076  -0.0000184   0.0000084   0.5056801
   62   0.1031256  -0.1238132  -0.0000169  -0.0000070  -0.6193291   0.0000103
   63  -0.0000000  -0.0000000  -0.0000000  -0.0000000  -0.0000000  -0.0000000
   64  -0.0000000   0.0000000  -0.0000000  -0.0000000   0.0000000  -0.0000000
   65  -0.0000000  -0.0000000  -0.0000000  -0.0000000   0.0000000   0.0000000
   66  -0.0000000   0.0000000  -0.0000000  -0.0000000   0.0000000   0.0000000
   67   0.0000000  -0.0000000  -0.0000000  -0.0000000   0.0000000  -0.0000000
   68   0.0000000  -0.0000000  -0.0000000   0.0000000  -0.0000000  -0.0000000
   69  -0.0000000  -0.0000000  -0.0000000   0.0000000   0.0000000  -0.0000000
   70  -0.0000000  -0.0000000   0.0000000   0.0000000  -0.0000000  -0.0000000
   71   0.0000000  -0.0000000   0.0000000   0.0000000  -0.0000000  -0.0000000
   72   0.0000000   0.0000000   0.0000000   0.0000000   0.0000000   0.0000000
   73   0.0000000  -0.0000000   0.0000000   0.0000000  -0.0000000   0.0000000
   74   0.0000000  -0.0000000   0.0000000   0.0000000  -0.0000000  -0.0000000
   75   0.0000000   0.0000000   0.0000000   0.0000000  -0.0000000  -0.0000000
   76   0.0000000   0.0000000   0.0000000   0.0000000  -0.0000000   0.0000000
   77  -0.0000000   0.0000000   0.0000000  -0.0000000   0.0000000   0.0000000
   78   0.0000000   0.0000000   0.0000000  -0.0000000  -0.0000000   0.0000000
   79   0.0000000   0.0000000  -0.0000000  -0.0000000   0.0000000   0.0000000
   80  -0.0000000   0.0000000   0.0000000  -0.0000000   0.0000000   0.0000000
           55          56          57          58          59          60
    1  -0.0000000   0.0000000   0.0000000  -0.0000000   0.0000000   0.0000000
    2  -0.0000000   0.0000000   0.0000000  -0.0000000   0.0000000   0.0000000
    3  -0.0000000   0.0000000   0.0000000  -0.0000000   0.0000000  -0.0000000
    4   0.0000000   0.0000000   0.0000000   0.0000000  -0.0000000   0.0000000
    5  -0.0000000  -0.0000000  -0.0000000  -0.0000000   0.0000000  -0.0000000
    6   0.0000000   0.0000000   0.0000000   0.0000000  -0.0000000   0.0000000
    7  -0.0000000  -1.4438551   0.0001818   0.0000224  -0.0000000   0.0000000
    8   0.0011742  -0.0000224  -0.0000001  -1.4407027  -0.0000000   0.0000000
    9  -0.0000000  -0.0001818  -1.4438551   0.0000001   0.0000000   0.0000000
   10  -0.0000007   1.8462761  -0.0002325  -0.0000288   0.0000000  -0.0000000
   11   0.0458440   0.0000287   0.0000001   1.8565361   0.0000000  -0.0000000
   12  -0.0000000   0.0002325   1.8462761  -0.0000001  -0.0000000  -0.0000000
   13   0.0000014  -1.2326765   0.0001552   0.0000192  -0.0000000   0.0000000
   14  -0.0879514  -0.0000192  -0.0000000  -1.2388949  -0.0000000   0.0000000
   15   0.0000000  -0.0001552  -1.2326765   0.0000000   0.0000000   0.0000000
   16  -0.0000008   0.5555348  -0.0000699  -0.0000086   0.0000000  -0.0000000
   17   0.0501600   0.0000086   0.0000000   0.5567278   0.0000000  -0.0000000
   18  -0.0000000   0.0000699   0.5555348  -0.0000000  -0.0000000  -0.0000000
   19   0.0000002  -0.1658576   0.0000209   0.0000026  -0.0000000   0.0000000
   20  -0.0144005  -0.0000026  -0.0000000  -0.1659478  -0.0000000   0.0000000
   21   0.0000000  -0.0000209  -0.1658576   0.0000000   0.0000000   0.0000000
   22  -0.0000000  -0.0000000  -0.0000000  -0.0000000  -0.0000000   0.0000000
   23   0.0000000   0.0000000   0.0000000   0.0000000   0.0000000   0.0000000
   24  -0.0000000   0.0000000   0.0000000   0.0000000  -0.0000000  -0.0000000
   25  -0.0000000   0.0000000   0.0000000   0.0000000   0.0000000   0.0000000
   26  -0.0000000  -0.0000000  -0.0000000  -0.0000000  -0.0000000   0.0000000
   27   0.0000000  -0.0000000   0.0000000   0.0000000  -0.0000000   0.0000000
   28  -0.0000000  -0.0000000   0.0000000  -0.0000000  -0.0000000  -0.0000000
   29   0.0000000  -0.0000000  -0.0000000  -0.0000000   0.0000000   0.0000000
   30   0.0000000  -0.0000000  -0.0000000  -0.0000000  -0.0000000  -0.0000000
   31  -0.0000000   0.0000000   0.0000000   0.0000000   0.0000000  -0.0000000
   32  -0.0000000   0.0000000  -0.0000000  -0.0000000   0.0000000  -0.0000000
   33   0.0000000   0.0000000  -0.0000000  -0.0000000   0.0000000  -0.0000000
   34  -0.0000000   0.0000000   0.0000000   0.0000000  -0.0000000  -0.0000000
   35  -0.0000000   0.0000000   0.0000000   0.0000000   0.0000000   0.0000000
   36   0.0000000  -0.0000000  -0.0000000  -0.0000000  -0.0000000   0.0000000
   37   0.0000000  -0.0000000   0.0000000   0.0000000   0.0000000  -0.0000000
   38  -0.0000000  -0.0000000   0.0000000   0.0000000  -0.0000000   0.0000000
   39   0.0000000  -0.0000000  -0.0000000  -0.0000000   0.0000000   0.0000000
   40   0.0000000  -0.0000000  -0.0000000  -0.0000000  -0.0000000  -0.0000000
   41   0.0000000   0.0000000   0.0000000   0.0000000  -0.0000000  -0.0000000
   42  -0.0891342   0.0000017   0.0000000   0.0386939   0.0000000  -0.0000000
   43   0.0000000   0.0000000   0.0000009  -0.0000000  -0.0000000   0.0000000
   44  -0.0690431   0.0000001   0.0000000   0.0299721   0.0000000   0.0000000
   45   0.0000000   0.0000029   0.0232434  -0.0000000  -0.0000000  -0.0000000
   46   0.0000011   0.0094891  -0.0000012  -0.0000005  -0.0000000  -0.0000000
   47   0.0000000   0.0000038   0.0300071  -0.0000000  -0.0000000  -0.0000000
   48   0.0000042   0.0367510  -0.0000046  -0.0000018   0.0000000   0.0000000
   49   1.0464860  -0.0000012  -0.0000000  -0.0262992  -0.0000000   0.0000000
   50  -0.0000000  -0.0000000  -0.0000006   0.0000000   0.0000000  -0.0000000
   51   0.8106046  -0.0000001  -0.0000000  -0.0203712  -0.0000000  -0.0000000
   52  -0.0000001  -0.0000020  -0.0158551   0.0000000   0.0000000   0.0000000
   53  -0.0000126  -0.0064728   0.0000008   0.0000003   0.0000000   0.0000000
   54  -0.0000001  -0.0000026  -0.0204689   0.0000000   0.0000000   0.0000000
   55  -0.0000488  -0.0250692   0.0000032   0.0000012  -0.0000000  -0.0000000
   56  -0.5050146   0.0000005   0.0000000   0.0105994   0.0000000  -0.0000000
   57   0.0000000   0.0000000   0.0000003  -0.0000000  -0.0000000   0.0000000
   58  -0.3911826   0.0000000   0.0000000   0.0082102   0.0000000   0.0000000
   59   0.0000000   0.0000008   0.0064256  -0.0000000  -0.0000000  -0.0000000
   60   0.0000061   0.0026233  -0.0000003  -0.0000001  -0.0000000  -0.0000000
   61   0.0000000   0.0000010   0.0082955  -0.0000000  -0.0000000   0.0000000
   62   0.0000235   0.0101598  -0.0000013  -0.0000005   0.0000000   0.0000000
   63   0.0000000   0.0000000  -0.0000000   0.0000000  -0.0000000  -0.0000096
   64   0.0000000   0.0000000  -0.0000000   0.0000000  -0.0000204   0.0000001
   65   0.0000000   0.0000000   0.0000000  -0.0000000   0.0000001   0.0000255
   66  -0.0000000  -0.0000000  -0.0000000   0.0000000   0.0000180  -0.0000000
   67  -0.0000000  -0.0000000  -0.0000000  -0.0000000  -0.0000000  -0.9167729
   68   0.0000000  -0.0000000  -0.0000000  -0.0000000   1.1596362  -0.0000000
   69   0.0000000   0.0000000   0.0000000   0.0000000   0.0000000   0.8199866
   70   0.0000000   0.0000000  -0.0000000   0.0000000  -0.4383013   0.0000000
   71  -0.0000000  -0.0000000  -0.0000000  -0.0000000   0.0000000  -0.1549629
   72  -0.0000000  -0.0000000   0.0000000  -0.0000000   0.0000000   0.0000046
   73  -0.0000000  -0.0000000  -0.0000000  -0.0000000   0.0000098  -0.0000000
   74  -0.0000000  -0.0000000  -0.0000000   0.0000000  -0.0000000  -0.0000122
   75   0.0000000   0.0000000   0.0000000  -0.0000000  -0.0000086   0.0000000
   76   0.0000000   0.0000000   0.0000000   0.0000000   0.0000000   0.4383364
   77  -0.0000000   0.0000000   0.0000000   0.0000000  -0.5544566   0.0000000
   78  -0.0000000  -0.0000000  -0.0000000  -0.0000000  -0.0000000  -0.3920600
   79  -0.0000000  -0.0000000   0.0000000  -0.0000000   0.2095649  -0.0000000
   80   0.0000000   0.0000000   0.0000000   0.0000000  -0.0000000   0.0740924
           61          62          63          64          65          66
    1  -0.0000000   0.0000000   0.0000000   0.0000000   0.0000000  -0.0000000
    2  -0.0000000   0.0000000   0.0000000  -0.0000000   0.0000000  -0.0000000
    3   0.0000000   0.0000000   0.0000000  -0.0000000  -0.0000000  -0.0000000
    4  -0.0000000  -0.0000000  -0.0000000   0.0000000   0.0000000   0.0000000
    5   0.0000000   0.0000000   0.0000000   0.0000000  -0.0000000  -0.0000000
    6  -0.0000000  -0.0000000  -0.0000000  -0.0000000   0.0000000   0.0000000
    7   0.0000000   0.0000000  -0.0000000   0.0000000   0.0000000  -0.0000000
    8  -0.0000000  -0.0000000  -0.0000000   0.0000000   0.0000000  -0.0000000
    9   0.0000000   0.0000000   0.0000000   0.0000000  -0.0000000   0.0000000
   10  -0.0000000  -0.0000000   0.0000000  -0.0000000  -0.0000000  -0.0000000
   11   0.0000000   0.0000000   0.0000000  -0.0000000  -0.0000000   0.0000000
   12  -0.0000000  -0.0000000  -0.0000000  -0.0000000   0.0000000  -0.0000000
   13   0.0000000   0.0000000  -0.0000000   0.0000000   0.0000000   0.0000000
   14  -0.0000000  -0.0000000  -0.0000000   0.0000000   0.0000000  -0.0000000
   15   0.0000000   0.0000000   0.0000000   0.0000000  -0.0000000   0.0000000
   16  -0.0000000  -0.0000000   0.0000000  -0.0000000  -0.0000000  -0.0000000
   17   0.0000000  -0.0000000   0.0000000  -0.0000000  -0.0000000   0.0000000
   18  -0.0000000  -0.0000000  -0.0000000  -0.0000000   0.0000000  -0.0000000
   19   0.0000000   0.0000000  -0.0000000   0.0000000   0.0000000   0.0000000
   20  -0.0000000  -0.0000000  -0.0000000   0.0000000   0.0000000  -0.0000000
   21   0.0000000   0.0000000   0.0000000   0.0000000  -0.0000000   0.0000000
   22   0.0000000   0.0000000   0.0000000   0.0000001  -0.0102068  -0.0000064
   23   0.0000000  -0.0000000   0.0000001  -0.0000000  -0.0000064   0.0102068
   24  -0.0000000   0.0000000  -0.0000000  -0.0071926   0.0000000  -0.0000000
   25   0.0000000  -0.0000000   0.0083054  -0.0000000   0.0000000  -0.0000002
   26   0.0000000   0.0000000   0.0000000   0.0041527   0.0000003  -0.0000000
   27  -0.0000000  -0.0000000   0.0000000   0.0000001  -0.0105206  -0.0000066
   28  -0.0000000   0.0000000   0.0000001  -0.0000000  -0.0000066   0.0105206
   29  -0.0000000  -0.0000000  -0.0000000  -0.0056354   0.0000000  -0.0000000
   30  -0.0000000   0.0000000   0.0065072  -0.0000000   0.0000000  -0.0000002
   31  -0.0000000  -0.0000000   0.0000000   0.0032536   0.0000003  -0.0000000
   32   0.0000000  -0.0000000  -0.0000000  -0.0000001   0.0071198   0.0000045
   33  -0.0000000  -0.0000000  -0.0000001   0.0000000   0.0000045  -0.0071198
   34   0.0000000   0.0000000   0.0000000   0.0039899  -0.0000000   0.0000000
   35   0.0000000  -0.0000000  -0.0046072   0.0000000  -0.0000000   0.0000001
   36   0.0000000   0.0000000  -0.0000000  -0.0023036  -0.0000002   0.0000000
   37  -0.0000000  -0.0000000   0.0000000   0.0000000  -0.0019008  -0.0000012
   38  -0.0000000   0.0000000   0.0000000  -0.0000000  -0.0000012   0.0019008
   39  -0.0000000  -0.0000000  -0.0000000  -0.0010477   0.0000000  -0.0000000
   40  -0.0000000  -0.0000000   0.0012098  -0.0000000   0.0000000  -0.0000000
   41  -0.0000000  -0.0000000   0.0000000   0.0006049   0.0000001  -0.0000000
   42   0.0000000  -0.0000000   0.0000000   0.0000000  -0.0000000   0.0000000
   43   0.0000000   0.0000000   0.0000000  -0.0000000   0.0000000   0.0000000
   44  -0.0000000  -0.0000000   0.0000000   0.0000000   0.0000000   0.0000000
   45  -0.0000000  -0.0000000   0.0000000  -0.0000000   0.0000000  -0.0000000
   46  -0.0000000   0.0000000  -0.0000000   0.0000000   0.0000000   0.0000000
   47  -0.0000000  -0.0000000   0.0000000   0.0000000   0.0000000  -0.0000000
   48  -0.0000000   0.0000000  -0.0000000  -0.0000000  -0.0000000  -0.0000000
   49  -0.0000000   0.0000000  -0.0000000  -0.0000000   0.0000000  -0.0000000
[...]
   31  -0.0000000  -0.0000000  -0.0000000  -0.0000001   0.0000000  -0.0000001
   32   0.0000000   0.0000000   0.0000000   0.0000000  -0.0000000   0.0000000
   33   0.0000000   0.0000000   0.0000000   0.0000000  -0.0000000   0.0000000
   34   0.0000000   0.0000000   0.0000000   0.0000006  -0.0000000   0.0000010
   35  -0.0000000  -0.0000000  -0.0000000  -0.0000000   0.0000000  -0.0000000
   36   0.0000000   0.0000000   0.0000000   0.0000011  -0.0000000   0.0000017
   37   0.0000000   0.0000000   0.0000000   0.0000000  -0.0000000   0.0000000
   38   0.0000000   0.0000000   0.0000000   0.0000000  -0.0000000   0.0000000
   39   0.0000000   0.0000000   0.0000000   0.0000003  -0.0000000   0.0000005
   40  -0.0000000  -0.0000000  -0.0000000  -0.0000000   0.0000000  -0.0000000
   41   0.0000000   0.0000000   0.0000000   0.0000006  -0.0000000   0.0000009
   42  -0.0000000  -0.0000000  -0.0000000   0.0000000  -0.0000000   0.0000000
   43   0.0000000   0.0000000   0.0000000   0.0000000   0.0000000   0.0000000
   44  -0.0000000  -0.0000000  -0.0000000   0.0000000  -0.0000000   0.0000000
   45   0.0000000   0.0000000   0.0000000  -0.0000000   0.0000000  -0.0000000
   46   0.0000000   0.0000000   0.0000000  -0.0000000   0.0000000  -0.0000000
   47   0.0000000   0.0000000   0.0000000  -0.0000000   0.0000000  -0.0000000
   48   0.0000000   0.0000000   0.0000000   0.0000000   0.0000000   0.0000000
   49  -0.0000000  -0.0000000  -0.0000000   0.0000000  -0.0000000   0.0000000
   50  -0.0000000  -0.0000000  -0.0000000  -0.0000000   0.0000000  -0.0000000
   51  -0.0000000  -0.0000000  -0.0000000   0.0000000  -0.0000000   0.0000000
   52   0.0000000   0.0000000   0.0000000   0.0000000   0.0000000   0.0000000
   53   0.0000000   0.0000000   0.0000000  -0.0000000   0.0000000  -0.0000000
   54   0.0000000   0.0000000   0.0000000   0.0000000   0.0000000   0.0000000
   55   0.0000000   0.0000000   0.0000000  -0.0000000   0.0000000  -0.0000000
   56  -0.0000000  -0.0000000  -0.0000000   0.0000000  -0.0000000   0.0000000
   57  -0.0000000  -0.0000000  -0.0000000  -0.0000000   0.0000000  -0.0000000
   58  -0.0000000  -0.0000000  -0.0000000   0.0000000  -0.0000000   0.0000000
   59   0.0000000  -0.0000000   0.0000000  -0.0000000   0.0000000  -0.0000000
   60   0.0000000   0.0000000   0.0000000   0.0000000   0.0000000   0.0000000
   61   0.0000000  -0.0000000   0.0000000  -0.0000000   0.0000000  -0.0000000
   62   0.0000000   0.0000000   0.0000000   0.0000000   0.0000000   0.0000000
   63   0.0000000   0.0000000   0.0000000   0.0000000  -0.0000000   0.0000000
   64   0.0000000   0.0000000   0.0000000   0.0000000  -0.0000000   0.0000000
   65   0.0000000   0.0000000   0.0000000   0.0000000  -0.0000000   0.0000000
   66   0.0000000   0.0000000   0.0000000   0.0000000  -0.0000000   0.0000000
   67   0.0000000   0.0000000   0.0000000   0.0000000  -0.0000000   0.0000000
   68  -0.0000000  -0.0000000  -0.0000000  -0.0000000   0.0000000  -0.0000000
   69   0.0000000   0.0000000   0.0000000   0.0000000  -0.0000000   0.0000000
   70  -0.0000000  -0.0000000  -0.0000000  -0.0000000   0.0000000  -0.0000000
   71   0.0000000   0.0000000   0.0000000   0.0000000  -0.0000000   0.0000000
   72   0.0000000   0.0000000   0.0000000   0.0000000  -0.0000000   0.0000000
   73   0.0000000   0.0000000   0.0000000   0.0000000  -0.0000000   0.0000000
   74   0.0000000   0.0000000   0.0000000   0.0000000  -0.0000000   0.0000000
   75   0.0000000   0.0000000   0.0000000   0.0000000  -0.0000000   0.0000000
   76   0.0000000   0.0000000   0.0000000   0.0000000  -0.0000000   0.0000000
   77  -0.0000000  -0.0000000  -0.0000000  -0.0000000   0.0000000  -0.0000000
   78   0.0000000   0.0000000   0.0000000   0.0000000  -0.0000000   0.0000001
   79  -0.0000000  -0.0000000  -0.0000000  -0.0000000   0.0000000  -0.0000000
   80   0.0000000   0.0000000   0.0000000   0.0000000  -0.0000000   0.0000001
           79          80
    1   0.0000000  -0.0000026
    2   0.0000000  -0.0001026
    3   0.0000000  -0.0000837
    4   0.0000000  -0.0001762
    5   0.0000000  -0.0000808
    6   0.0000000  -0.0000009
    7  -0.0000000  -0.0000000
    8   0.0000000  -0.0000000
    9  -0.0000000   0.0000000
   10  -0.0000000  -0.0000000
   11   0.0000000  -0.0000000
   12  -0.0000000  -0.0000000
   13  -0.0000000   0.0000000
   14   0.0000000  -0.0000000
   15  -0.0000000   0.0000000
   16  -0.0000000  -0.0000000
   17   0.0000000  -0.0000000
   18  -0.0000000  -0.0000000
   19  -0.0000000  -0.0000000
   20   0.0000000  -0.0000000
   21  -0.0000000  -0.0000000
   22  -0.0000000   0.0000000
   23  -0.0000000   0.0000000
   24  -0.0000000   0.0000003
   25   0.0000000  -0.0000000
   26  -0.0000000   0.0000006
   27   0.0000000  -0.0000000
   28   0.0000000  -0.0000000
   29   0.0000000  -0.0000001
   30  -0.0000000   0.0000000
   31   0.0000000  -0.0000002
   32  -0.0000000   0.0000000
   33  -0.0000000   0.0000000
   34  -0.0000000   0.0000013
   35   0.0000000  -0.0000000
   36  -0.0000000   0.0000022
   37  -0.0000000   0.0000000
   38  -0.0000000   0.0000000
   39  -0.0000000   0.0000006
   40   0.0000000  -0.0000000
   41  -0.0000000   0.0000011
   42   0.0000000  -0.0000000
   43  -0.0000000   0.0000000
   44   0.0000000   0.0000000
   45  -0.0000000  -0.0000000
   46  -0.0000000  -0.0000000
   47  -0.0000000  -0.0000000
   48  -0.0000000   0.0000000
   49   0.0000000  -0.0000000
   50  -0.0000000  -0.0000000
   51   0.0000000  -0.0000000
   52  -0.0000000   0.0000000
   53  -0.0000000  -0.0000000
   54  -0.0000000   0.0000000
   55  -0.0000000  -0.0000000
   56   0.0000000  -0.0000000
   57  -0.0000000  -0.0000000
   58   0.0000000  -0.0000000
   59  -0.0000000  -0.0000000
   60  -0.0000000   0.0000000
   61  -0.0000000  -0.0000000
   62  -0.0000000   0.0000000
   63  -0.0000000   0.0000000
   64  -0.0000000   0.0000000
   65  -0.0000000   0.0000000
   66  -0.0000000   0.0000000
   67  -0.0000000   0.0000000
   68   0.0000000  -0.0000000
   69  -0.0000000   0.0000000
   70   0.0000000  -0.0000000
   71  -0.0000000   0.0000000
   72  -0.0000000   0.0000000
   73  -0.0000000   0.0000000
   74  -0.0000000   0.0000000
   75  -0.0000000   0.0000000
   76  -0.0000000   0.0000000
   77   0.0000000  -0.0000000
   78  -0.0000000   0.0000001
   79   0.0000000  -0.0000000
   80  -0.0000000   0.0000001
 SCF time:   CPU 1.53s  wall 1.00s 
 SCF   energy in the final basis set =      -37.6045426406
 Total energy in the final basis set =      -37.6045426406

 Q-Chem warning in module /home/eric/data/opt/apps/qchem/trunk.svn/libsym/oriorb.F, line  204:

 Quadrupole field failed to resolve orbital degeneracies.


 Q-Chem warning in module /home/eric/data/opt/apps/qchem/trunk.svn/libsym/oriorb.F, line  204:

 Quadrupole field failed to resolve orbital degeneracies.


 --------------------------------------------------------------

                    Orbital Energies (a.u.)
 --------------------------------------------------------------

 Alpha MOs
 -- Occupied --
-11.3650  -0.7256  -0.3584
 -- Virtual --
  0.0189   0.0189   0.0834   0.0899   0.1082   0.1082   0.2324   0.2324
  0.2416   0.2416   0.2454   0.4453   0.4640   0.4640   0.5032   0.7441
  0.7441   0.7623   0.7623   0.7736   0.7736   0.7757   0.7757   0.7774
  0.7911   0.7911   0.7984   1.5915   1.5915   1.6086   2.0900   2.0900
  2.1076   2.1183   2.1183   2.1386   2.1386   2.1508   2.1508   2.1549
  2.1973   2.1973   2.2315   2.2315   2.2448   2.2452   2.2452   2.2831
  2.2831   2.3067   2.3067   2.3147   5.7671   5.7671   5.8142   5.8739
  5.8739   5.9212   5.9212   5.9548   5.9548   5.9750   5.9750   5.9817
  6.3280   6.3280   6.3828   6.3828   6.4014   6.4181   6.4181   6.4730
  6.4730   6.5067   6.5067   6.5180  20.4226
 --------------------------------------------------------------


                        RESTRICTED (RHF) MOLECULAR ORBITAL COEFFICIENTS
                         1         2         3         4         5         6
 eigenvalues:        -11.365    -0.726    -0.358     0.019     0.019     0.083
   1  C     s       -0.99335  -0.00055  -0.00000   0.00000   0.00000   0.02673
   2  C     s       -0.00016  -0.34461  -0.00000   0.00000   0.00000   0.11742
   3  C     s       -0.01575  -0.28096  -0.00000   0.00000   0.00000   0.17435
   4  C     s        0.00348  -0.59193   0.00000  -0.00000  -0.00000  -0.22498
   5  C     s       -0.00161  -0.27147  -0.00000   0.00000   0.00000   1.35882
   6  C     s        0.00040  -0.00293  -0.00000  -0.00000  -0.00000  -1.81403
   7  C     px       0.00000  -0.00000  -0.00000   0.09664   0.00000   0.00000
   8  C     py       0.00000  -0.00000   0.16656   0.00000   0.00000  -0.00000
   9  C     pz      -0.00000   0.00000  -0.00000  -0.00000   0.09664  -0.00000
  10  C     px      -0.00000  -0.00000  -0.00001   0.18334   0.00000   0.00000
  11  C     py       0.00000  -0.00000   0.32543   0.00000   0.00000  -0.00000
  12  C     pz       0.00000  -0.00000  -0.00000  -0.00000   0.18334  -0.00000
  13  C     px       0.00000   0.00000  -0.00001   0.30012   0.00000   0.00000
  14  C     py      -0.00000  -0.00000   0.44185   0.00000   0.00000   0.00000
  15  C     pz      -0.00000   0.00000  -0.00000  -0.00000   0.30012  -0.00000
  16  C     px      -0.00000  -0.00000  -0.00000   0.23774   0.00000   0.00000
  17  C     py       0.00000  -0.00000   0.28897   0.00000   0.00000  -0.00000
  18  C     pz      -0.00000  -0.00000  -0.00000  -0.00000   0.23774  -0.00000
  19  C     px       0.00000  -0.00000  -0.00000   0.52802   0.00000  -0.00000
  20  C     py      -0.00000  -0.00000   0.02378   0.00001   0.00000   0.00000
  21  C     pz      -0.00000  -0.00000  -0.00000  -0.00000   0.52802   0.00000
  22  C     d 1     -0.00000   0.00000  -0.00000  -0.00000  -0.00000   0.00000
  23  C     d 2     -0.00000   0.00000  -0.00000  -0.00000   0.00000   0.00000
  24  C     d 3     -0.00011   0.00111  -0.00000   0.00000   0.00000   0.00024
  25  C     d 4      0.00000  -0.00000   0.00000   0.00000  -0.00000  -0.00000
  26  C     d 5     -0.00018   0.00192   0.00000  -0.00000   0.00000   0.00042
  27  C     d 1      0.00000  -0.00000   0.00000   0.00000   0.00000   0.00000
  28  C     d 2      0.00000  -0.00000   0.00000   0.00000  -0.00000   0.00000
  29  C     d 3      0.00051  -0.00033   0.00000  -0.00000  -0.00000   0.00000
  30  C     d 4     -0.00000   0.00000  -0.00000  -0.00000   0.00000  -0.00000
  31  C     d 5      0.00088  -0.00058   0.00000  -0.00000  -0.00000   0.00001
  32  C     d 1     -0.00000   0.00000  -0.00000  -0.00000  -0.00000   0.00000
  33  C     d 2     -0.00000   0.00000  -0.00000  -0.00000   0.00000   0.00000
  34  C     d 3     -0.00005   0.00429  -0.00000  -0.00000  -0.00000   0.00532
  35  C     d 4      0.00000  -0.00000  -0.00000   0.00000  -0.00000  -0.00000
  36  C     d 5     -0.00009   0.00743  -0.00000   0.00000   0.00000   0.00921
  37  C     d 1      0.00000   0.00000   0.00000   0.00000   0.00000  -0.00000
  38  C     d 2      0.00000   0.00000   0.00000   0.00000  -0.00000  -0.00000
  39  C     d 3      0.00004   0.00218   0.00000   0.00000  -0.00000  -0.03113
  40  C     d 4     -0.00000  -0.00000   0.00000  -0.00000   0.00000   0.00000
  41  C     d 5      0.00008   0.00378  -0.00000  -0.00000  -0.00000  -0.05391
  42  C     f 1     -0.00000   0.00000   0.00327   0.00000   0.00000   0.00000
  43  C     f 2      0.00000   0.00000  -0.00000   0.00000   0.00000  -0.00000
  44  C     f 3     -0.00000   0.00000   0.00253   0.00000   0.00000   0.00000
  45  C     f 4      0.00000  -0.00000  -0.00000  -0.00000   0.00129  -0.00000
  46  C     f 5     -0.00000  -0.00000  -0.00000   0.00053   0.00000   0.00000
  47  C     f 6     -0.00000  -0.00000  -0.00000  -0.00000   0.00166   0.00000
  48  C     f 7     -0.00000   0.00000  -0.00000   0.00204   0.00000   0.00000
  49  C     f 1     -0.00000   0.00000   0.00738   0.00000   0.00000   0.00000
  50  C     f 2      0.00000  -0.00000  -0.00000   0.00000   0.00000   0.00000
  51  C     f 3      0.00000  -0.00000   0.00571   0.00000   0.00000   0.00000
  52  C     f 4      0.00000   0.00000  -0.00000  -0.00000   0.00240  -0.00000
  53  C     f 5      0.00000  -0.00000  -0.00000   0.00098   0.00000  -0.00000
  54  C     f 6      0.00000   0.00000  -0.00000  -0.00000   0.00310  -0.00000
  55  C     f 7      0.00000  -0.00000  -0.00000   0.00379   0.00000   0.00000
  56  C     f 1      0.00000  -0.00000   0.00614   0.00000   0.00000  -0.00000
  57  C     f 2     -0.00000  -0.00000  -0.00000   0.00000   0.00000   0.00000
  58  C     f 3     -0.00000  -0.00000   0.00475   0.00000   0.00000   0.00000
  59  C     f 4     -0.00000  -0.00000  -0.00000  -0.00000   0.00723  -0.00000
  60  C     f 5      0.00000   0.00000  -0.00000   0.00295   0.00000   0.00000
  61  C     f 6     -0.00000  -0.00000  -0.00000  -0.00000   0.00933   0.00000
  62  C     f 7     -0.00000   0.00000  -0.00000   0.01143   0.00000   0.00000
  63  C     g 1      0.00000   0.00000  -0.00000   0.00000   0.00000   0.00000
  64  C     g 2      0.00000   0.00000  -0.00000   0.00000  -0.00000   0.00000
  65  C     g 3      0.00000   0.00000  -0.00000   0.00000   0.00000   0.00000
  66  C     g 4      0.00000   0.00000   0.00000  -0.00000  -0.00000   0.00000
  67  C     g 5      0.00001   0.00002  -0.00000   0.00000  -0.00000   0.00003
  68  C     g 6     -0.00000  -0.00000   0.00000   0.00000   0.00000  -0.00000
  69  C     g 7      0.00001   0.00004   0.00000   0.00000  -0.00000   0.00005
  70  C     g 8     -0.00000  -0.00000   0.00000   0.00000  -0.00000  -0.00000
  71  C     g 9      0.00001   0.00005   0.00000  -0.00000  -0.00000   0.00006
  72  C     g 1      0.00000   0.00000   0.00000  -0.00000  -0.00000  -0.00000
  73  C     g 2      0.00000   0.00000  -0.00000  -0.00000   0.00000  -0.00000
  74  C     g 3      0.00000   0.00000  -0.00000  -0.00000  -0.00000  -0.00000
  75  C     g 4      0.00000   0.00000  -0.00000   0.00000   0.00000  -0.00000
  76  C     g 5      0.00000   0.00015   0.00000   0.00000  -0.00000  -0.00011
  77  C     g 6     -0.00000  -0.00000  -0.00000  -0.00000  -0.00000   0.00000
  78  C     g 7      0.00000   0.00023   0.00000   0.00000  -0.00000  -0.00017
  79  C     g 8     -0.00000  -0.00000   0.00000   0.00000   0.00000   0.00000
  80  C     g 9      0.00000   0.00030  -0.00000  -0.00000  -0.00000  -0.00023
                         7         8
 eigenvalues:          0.090     0.108
   1  C     s       -0.00000   0.00000
   2  C     s       -0.00000  -0.00000
   3  C     s       -0.00000   0.00000
   4  C     s        0.00000  -0.00000
   5  C     s       -0.00000   0.00000
   6  C     s        0.00000  -0.00000
   7  C     px      -0.00000   0.07999
   8  C     py       0.03311   0.00000
   9  C     pz      -0.00000   0.00000
  10  C     px      -0.00000   0.20284
  11  C     py       0.10501   0.00000
  12  C     pz      -0.00000   0.00000
  13  C     px       0.00000   0.11259
  14  C     py      -0.02041   0.00000
  15  C     pz       0.00000   0.00000
  16  C     px      -0.00001   0.80733
  17  C     py       0.52966   0.00001
  18  C     pz      -0.00000   0.00000
  19  C     px       0.00002  -1.18807
  20  C     py      -1.26811  -0.00002
  21  C     pz       0.00000  -0.00000
  22  C     d 1     -0.00000   0.00000
  23  C     d 2     -0.00000   0.00000
  24  C     d 3      0.00000   0.00000
  25  C     d 4     -0.00000   0.00000
  26  C     d 5      0.00000   0.00000
  27  C     d 1      0.00000   0.00000
  28  C     d 2      0.00000  -0.00000
  29  C     d 3     -0.00000  -0.00000
  30  C     d 4      0.00000  -0.00000
  31  C     d 5      0.00000  -0.00000
  32  C     d 1     -0.00000  -0.00000
  33  C     d 2     -0.00000   0.00000
  34  C     d 3      0.00000  -0.00000
  35  C     d 4     -0.00000   0.00000
  36  C     d 5     -0.00000   0.00000
  37  C     d 1     -0.00000   0.00000
  38  C     d 2      0.00000  -0.00000
  39  C     d 3      0.00000   0.00000
  40  C     d 4     -0.00000  -0.00000
  41  C     d 5      0.00000  -0.00000
  42  C     f 1      0.00047   0.00000
  43  C     f 2     -0.00000   0.00000
  44  C     f 3      0.00036   0.00000
  45  C     f 4     -0.00000   0.00000
  46  C     f 5     -0.00000   0.00038
  47  C     f 6     -0.00000   0.00000
  48  C     f 7     -0.00000   0.00147
  49  C     f 1      0.00336   0.00000
  50  C     f 2     -0.00000   0.00000
  51  C     f 3      0.00260   0.00000
  52  C     f 4     -0.00000   0.00000
  53  C     f 5     -0.00000   0.00143
  54  C     f 6     -0.00000   0.00000
  55  C     f 7     -0.00000   0.00556
  56  C     f 1     -0.00509   0.00000
  57  C     f 2      0.00000   0.00000
  58  C     f 3     -0.00394   0.00000
  59  C     f 4      0.00000   0.00000
  60  C     f 5      0.00000   0.00050
  61  C     f 6      0.00000   0.00000
  62  C     f 7      0.00000   0.00195
  63  C     g 1     -0.00000  -0.00000
  64  C     g 2      0.00000   0.00000
  65  C     g 3      0.00000   0.00000
  66  C     g 4      0.00000   0.00000
  67  C     g 5     -0.00000   0.00000
  68  C     g 6     -0.00000   0.00000
  69  C     g 7     -0.00000   0.00000
  70  C     g 8      0.00000  -0.00000
  71  C     g 9     -0.00000  -0.00000
  72  C     g 1      0.00000  -0.00000
  73  C     g 2      0.00000  -0.00000
  74  C     g 3      0.00000   0.00000
  75  C     g 4     -0.00000  -0.00000
  76  C     g 5      0.00000  -0.00000
  77  C     g 6      0.00000   0.00000
  78  C     g 7     -0.00000   0.00000
  79  C     g 8      0.00000   0.00000
  80  C     g 9      0.00000   0.00000

          Ground-State Mulliken Net Atomic Charges

     Atom                 Charge (a.u.)
  ----------------------------------------
      1 C                     0.000000
  ----------------------------------------
  Sum of atomic charges =     0.000000

 -----------------------------------------------------------------
                    Cartesian Multipole Moments
 -----------------------------------------------------------------
    Charge (ESU x 10^10)
                 0.0000
    Dipole Moment (Debye)
         X      -0.0000      Y       0.0000      Z      -0.0000
       Tot       0.0000
    Quadrupole Moments (Debye-Ang)
        XX      -5.0724     XY       0.0001     YY      -9.5402
        XZ      -0.0000     YZ       0.0000     ZZ      -5.0724
    Octopole Moments (Debye-Ang^2)
       XXX      -0.0000    XXY       0.0000    XYY      -0.0000
       YYY       0.0000    XXZ      -0.0000    XYZ      -0.0000
       YYZ      -0.0000    XZZ      -0.0000    YZZ       0.0000
       ZZZ      -0.0000
    Hexadecapole Moments (Debye-Ang^3)
      XXXX      -5.4258   XXXY       0.0001   XXYY      -3.6748
      XYYY       0.0001   YYYY     -16.2592   XXXZ      -0.0000
      XXYZ       0.0000   XYYZ      -0.0000   YYYZ       0.0000
      XXZZ      -1.8086   XYZZ       0.0000   YYZZ      -3.6748
      XZZZ      -0.0000   YZZZ       0.0000   ZZZZ      -5.4258
 -----------------------------------------------------------------

 STANDARD THERMODYNAMIC QUANTITIES AT   298.15 K  AND     1.00 ATM

   Translational Enthalpy:        0.889 kcal/mol
   Rotational Enthalpy:           0.000 kcal/mol
   Vibrational Enthalpy:          0.000 kcal/mol
   gas constant (RT):             0.592 kcal/mol
   Translational Entropy:        33.398  cal/mol.K
   Rotational Entropy:            0.000  cal/mol.K
   Vibrational Entropy:           0.000  cal/mol.K

   Total Enthalpy:                1.481 kcal/mol
   Total Entropy:                33.398  cal/mol.K

 -----------------------------------------------------------------

 Total job time:  1.60s(wall), 1.59s(cpu) 
 Sun Sep 19 10:14:56 2021

        *************************************************************
        *                                                           *
        *  Thank you very much for using Q-Chem.  Have a nice day.  *
        *                                                           *
        *************************************************************


