                  Welcome to Q-Chem
     A Quantum Leap Into The Future Of Chemistry


 Q-Chem 5.4 (devel), Q-Chem, Inc., Pleasanton, CA (2021)

 E. Epifanovsky,  A. T. B. Gilbert,  Xintian Feng,  Joonho Lee,  Yuezhi Mao,  
 N. Mardirossian,  P. Pokhilko,  A. White,  M. Wormit,  M. P. Coons,  
 A. L. Dempwolff,  Zhengting Gan,  D. Hait,  P. R. Horn,  L. D. Jacobson,  
 I. Kaliman,  J. Kussmann,  A. W. Lange,  Ka Un Lao,  D. S. Levine,  Jie Liu,  
 S. C. McKenzie,  A. F. Morrison,  K. Nanda,  F. Plasser,  D. R. Rehn,  
 M. L. Vidal,  Zhi-Qiang You,  Ying Zhu,  B. Alam,  B. Albrecht,  
 A. Aldossary,  E. Alguire,  J. H. Andersen,  D. Barton,  K. Begam,  A. Behn,  
 Y. A. Bernard,  E. J. Berquist,  H. Burton,  A. Carreras,  K. Carter-Fenk,  
 R. Chakraborty,  A. D. Chien,  K. D. Closser,  V. Cofer-Shabica,  
 S. Dasgupta,  Jia Deng,  M. de Wergifosse,  M. Diedenhofen,  Hainam Do,  
 S. Ehlert,  Po-Tung Fang,  S. Fatehi,  Qingguo Feng,  T. Friedhoff,  
 J. Gayvert,  Qinghui Ge,  G. Gidofalvi,  M. Goldey,  J. Gomes,  
 C. Gonzalez-Espinoza,  S. Gulania,  A. Gunina,  M. W. D. Hanson-Heine,  
 P. H. P. Harbach,  A. W. Hauser,  M. F. Herbst,  M. Hernandez Vera,  
 M. Hodecker,  Z. C. Holden,  S. Houck,  Xunkun Huang,  Kerwin Hui,  
 B. C. Huynh,  M. Ivanov,  Hyunjun Ji,  Hanjie Jiang,  B. Kaduk,  S. Kaehler,  
 K. Khistyaev,  Jaehoon Kim,  P. Klunzinger,  Z. Koczor-Benda,  
 Joong Hoon Koh,  D. Kosenkov,  L. Koulias,  T. Kowalczyk,  C. M. Krauter,  
 K. Kue,  A. Kunitsa,  T. Kus,  A. Landau,  K. V. Lawler,  D. Lefrancois,  
 S. Lehtola,  Rain Li,  Yi-Pei Li,  Jiashu Liang,  M. Liebenthal,  
 Hung-Hsuan Lin,  You-Sheng Lin,  Fenglai Liu,  Kuan-Yu Liu,  
 M. Loipersberger,  A. Luenser,  A. Manjanath,  P. Manohar,  E. Mansoor,  
 S. F. Manzer,  Shan-Ping Mao,  A. V. Marenich,  T. Markovich,  S. Mason,  
 S. A. Maurer,  P. F. McLaughlin,  M. F. S. J. Menger,  J.-M. Mewes,  
 S. A. Mewes,  P. Morgante,  J. W. Mullinax,  K. J. Oosterbaan,  G. Paran,  
 Alexander C. Paul,  Suranjan K. Paul,  F. Pavosevic,  Zheng Pei,  S. Prager,  
 E. I. Proynov,  E. Ramos,  B. Rana,  A. E. Rask,  A. Rettig,  R. M. Richard,  
 F. Rob,  E. Rossomme,  T. Scheele,  M. Scheurer,  M. Schneider,  
 N. Sergueev,  S. M. Sharada,  W. Skomorowski,  D. W. Small,  C. J. Stein,  
 Yu-Chuan Su,  E. J. Sundstrom,  Zhen Tao,  J. Thirman,  T. Tsuchimochi,  
 N. M. Tubman,  S. P. Veccham,  O. Vydrov,  J. Wenzel,  J. Witte,  A. Yamada,  
 Kun Yao,  S. Yeganeh,  S. R. Yost,  A. Zech,  Igor Ying Zhang,  Xing Zhang,  
 Yu Zhang,  D. Zuev,  A. Aspuru-Guzik,  A. T. Bell,  N. A. Besley,  
 K. B. Bravaya,  B. R. Brooks,  D. Casanova,  Jeng-Da Chai,  S. Coriani,  
 C. J. Cramer,  A. E. DePrince, III,  R. A. DiStasio Jr.,  A. Dreuw,  
 B. D. Dunietz,  T. R. Furlani,  W. A. Goddard III,  S. Grimme,  
 S. Hammes-Schiffer,  T. Head-Gordon,  W. J. Hehre,  Chao-Ping Hsu,  
 T.-C. Jagau,  Yousung Jung,  A. Klamt,  Jing Kong,  D. S. Lambrecht,  
 WanZhen Liang,  N. J. Mayhall,  C. W. McCurdy,  J. B. Neaton,  
 C. Ochsenfeld,  J. A. Parkhill,  R. Peverati,  V. A. Rassolov,  Yihan Shao,  
 L. V. Slipchenko,  T. Stauch,  R. P. Steele,  J. E. Subotnik,  
 A. J. W. Thom,  A. Tkatchenko,  D. G. Truhlar,  T. Van Voorhis,  
 T. A. Wesolowski,  K. B. Whaley,  H. L. Woodcock III,  P. M. Zimmerman,  
 S. Faraji,  P. M. W. Gill,  M. Head-Gordon,  J. M. Herbert,  A. I. Krylov

 Additional authors for Version 5.4.1: 
 S. Kotaru,  Shaozhi Li,  Xiangyuan Li,  F. Matz,  A. Molle,  Haisheng Ren,  
 Yingli Su,  Hung-Yi Tsai,  C. Utku,  Fang Wang

 Contributors to earlier versions of Q-Chem not listed above: 
 R. D. Adamson,  B. Austin,  R. Baer,  J. Baker,  G. J. O. Beran,  
 K. Brandhorst,  S. T. Brown,  E. F. C. Byrd,  A. K. Chakraborty,  
 G. K. L. Chan,  Chun-Min Chang,  Yunqing Chen,  C.-L. Cheng,  
 Siu Hung Chien,  D. M. Chipman,  D. L. Crittenden,  H. Dachsel,  
 R. J. Doerksen,  A. D. Dutoi,  R. G. Edgar,  J. Fosso-Tande,  
 L. Fusti-Molnar,  D. Ghosh,  A. Ghysels,  A. Golubeva-Zadorozhnaya,  
 J. Gonthier,  M. S. Gordon,  S. R. Gwaltney,  G. Hawkins,  J. E. Herr,  
 A. Heyden,  S. Hirata,  E. G. Hohenstein,  G. Kedziora,  F. J. Keil,  
 C. Kelley,  Jihan Kim,  R. A. King,  R. Z. Khaliullin,  P. P. Korambath,  
 W. Kurlancheek,  A. Laurent,  A. M. Lee,  M. S. Lee,  S. V. Levchenko,  
 Ching Yeh Lin,  D. Liotard,  E. Livshits,  R. C. Lochan,  I. Lotan,  
 L. A. Martinez-Martinez,  P. E. Maslen,  N. Nair,  D. P. O'Neill,  
 D. Neuhauser,  E. Neuscamman,  C. M. Oana,  R. Olivares-Amaya,  R. Olson,  
 T. M. Perrine,  B. Peters,  P. A. Pieniazek,  A. Prociuk,  Y. M. Rhee,  
 J. Ritchie,  M. A. Rohrdanz,  E. Rosta,  N. J. Russ,  H. F. Schaefer III,  
 M. W. Schmidt,  N. E. Schultz,  S. Sharma,  N. Shenvi,  C. D. Sherrill,  
 A. C. Simmonett,  A. Sodt,  T. Stein,  D. Stuck,  K. S. Thanthiriwatte,  
 V. Vanovschi,  L. Vogt,  Tao Wang,  A. Warshel,  M. A. Watson,  
 C. F. Williams,  Q. Wu,  X. Xu,  Jun Yang,  W. Zhang,  Yan Zhao

 Please cite Q-Chem as follows:
 Y. Shao et al., Mol. Phys. 113, 184-215 (2015)
 DOI: 10.1080/00268976.2014.952696

 Q-Chem 5.4.1 for Intel X86 EM64T Linux

 Parts of Q-Chem use Armadillo 9.900.5 (Nocturnal Misbehaviour).
 http://arma.sourceforge.net/

Compilation information
-----------------------

 SVN revision             | 37731
 SVN branch               | trunk
 Last SVN revision        | 37729
 Last SVN author          | epif
 Hostname                 | osmium
 User                     | eric
 System                   | Linux-5.14.3-arch1-1
 Processor                | x86_64
 Compiler                 | GNU
 C compiler version       | 10.3.0
 CXX compiler version     | 10.3.0
 Fortran compiler version | 10.3.0
 Configuration time       | 2021-09-18 20:48:41


 Q-Chem begins on Thu Sep 22 23:33:19 2022  

 Host: osmium
0

     Scratch files written to /tmp/qchem/qchem1496963//
 Processing $rem in /home/eric/data/opt/apps/qchem/archive/r37729-g10.3.0-openblas/config/preferences:
 Processing $rem in /home/eric/.qchemrc:

 Checking the input file for inconsistencies... 	...done.

--------------------------------------------------------------
User input:
--------------------------------------------------------------
$comment
 Divinylbenzene, single point, RB3LYP/STO-3G
$end

$rem
 method = b3lyp
 basis = sto-3g
 scf_final_print = 2
 print_general_basis = true
 print_orbitals = true
 lowdin_population = true
 chelpg = true
 esp_charges = 1
 hirshfeld = true
 cm5 = true
 molden_format = false
 gui = 2
$end

$molecule
 0 1
 C                  0.27867948   -1.36683162    0.00000000
 C                  1.32303041   -0.44173575    0.00000000
 C                  1.04434506    0.92484978    0.00000000
 C                 -0.27867948    1.36683162    0.00000000
 C                 -1.32303041    0.44173575    0.00000000
 C                 -1.04434506   -0.92484978    0.00000000
 H                  2.36595443   -0.79037726    0.00000000
 H                  1.86746094    1.65407997    0.00000000
 H                 -2.36595443    0.79037726    0.00000000
 H                 -1.86746094   -1.65407997    0.00000000
 C                 -0.58659169    2.87589931    0.00000000
 C                  0.36350188    3.80076420    0.00000000
 H                 -1.65647768    3.12394312    0.00000000
 H                  0.14429560    4.87693235    0.00000000
 H                  1.43338788    3.55272039    0.00000000
 C                  0.58659169   -2.87589931    0.00000000
 C                 -0.36350188   -3.80076420    0.00000000
 H                  1.65647768   -3.12394312    0.00000000
 H                 -0.14429560   -4.87693235    0.00000000
 H                 -1.43338788   -3.55272039    0.00000000
$end
--------------------------------------------------------------
 ----------------------------------------------------------------
             Standard Nuclear Orientation (Angstroms)
    I     Atom           X                Y                Z
 ----------------------------------------------------------------
    1      C       1.3668132833     0.2787694006    -0.0000000000
    2      C       0.4416487095     1.3230594681    -0.0000000000
    3      C      -0.9249184834     1.0442842137    -0.0000000000
    4      C      -1.3668132833    -0.2787694006     0.0000000000
    5      C      -0.4416487095    -1.3230594681     0.0000000000
    6      C       0.9249184834    -1.0442842137     0.0000000000
    7      H       0.7902216068     2.3660064222    -0.0000000000
    8      H      -1.6542028230     1.8673521173    -0.0000000000
    9      H      -0.7902216068    -2.3660064222     0.0000000000
   10      H       1.6542028230    -1.8673521173     0.0000000000
   11      C      -2.8758607131    -0.5867808885     0.0000000000
   12      C      -3.8007881058     0.3632518344    -0.0000000000
   13      H      -3.1238341368    -1.6566831945     0.0000000000
   14      H      -4.8769418324     0.1439747559    -0.0000000000
   15      H      -3.5528146821     1.4331541504    -0.0000000000
   16      C       2.8758607131     0.5867808885    -0.0000000000
   17      C       3.8007881058    -0.3632518344     0.0000000000
   18      H       3.1238341368     1.6566831945    -0.0000000000
   19      H       4.8769418324    -0.1439747559     0.0000000000
   20      H       3.5528146821    -1.4331541504     0.0000000000
 ----------------------------------------------------------------
 Molecular Point Group                 C2h   NOp =  4
 Largest Abelian Subgroup              C2h   NOp =  4
 Nuclear Repulsion Energy =         450.00613820 hartrees
 There are       35 alpha and       35 beta electrons
 Requested basis set is STO-3G
 Basis set in general basis input format:
-----------------------------------------------------------------------
$basis
C    0
S    3    1.000000
   7.16168370E+01    1.54328970E-01 
   1.30450960E+01    5.35328140E-01 
   3.53051220E+00    4.44634540E-01 
SP   3    1.000000
   2.94124940E+00   -9.99672300E-02   1.55916270E-01 
   6.83483100E-01    3.99512830E-01   6.07683720E-01 
   2.22289900E-01    7.00115470E-01   3.91957390E-01 
****
C    0
S    3    1.000000
   7.16168370E+01    1.54328970E-01 
   1.30450960E+01    5.35328140E-01 
   3.53051220E+00    4.44634540E-01 
SP   3    1.000000
   2.94124940E+00   -9.99672300E-02   1.55916270E-01 
   6.83483100E-01    3.99512830E-01   6.07683720E-01 
   2.22289900E-01    7.00115470E-01   3.91957390E-01 
****
C    0
S    3    1.000000
   7.16168370E+01    1.54328970E-01 
   1.30450960E+01    5.35328140E-01 
   3.53051220E+00    4.44634540E-01 
SP   3    1.000000
   2.94124940E+00   -9.99672300E-02   1.55916270E-01 
   6.83483100E-01    3.99512830E-01   6.07683720E-01 
   2.22289900E-01    7.00115470E-01   3.91957390E-01 
****
C    0
S    3    1.000000
   7.16168370E+01    1.54328970E-01 
   1.30450960E+01    5.35328140E-01 
   3.53051220E+00    4.44634540E-01 
SP   3    1.000000
   2.94124940E+00   -9.99672300E-02   1.55916270E-01 
   6.83483100E-01    3.99512830E-01   6.07683720E-01 
   2.22289900E-01    7.00115470E-01   3.91957390E-01 
****
C    0
S    3    1.000000
   7.16168370E+01    1.54328970E-01 
   1.30450960E+01    5.35328140E-01 
   3.53051220E+00    4.44634540E-01 
SP   3    1.000000
   2.94124940E+00   -9.99672300E-02   1.55916270E-01 
   6.83483100E-01    3.99512830E-01   6.07683720E-01 
   2.22289900E-01    7.00115470E-01   3.91957390E-01 
****
C    0
S    3    1.000000
   7.16168370E+01    1.54328970E-01 
   1.30450960E+01    5.35328140E-01 
   3.53051220E+00    4.44634540E-01 
SP   3    1.000000
   2.94124940E+00   -9.99672300E-02   1.55916270E-01 
   6.83483100E-01    3.99512830E-01   6.07683720E-01 
   2.22289900E-01    7.00115470E-01   3.91957390E-01 
****
H    0
S    3    1.000000
   3.42525091E+00    1.54328970E-01 
   6.23913730E-01    5.35328140E-01 
   1.68855400E-01    4.44634540E-01 
****
H    0
S    3    1.000000
   3.42525091E+00    1.54328970E-01 
   6.23913730E-01    5.35328140E-01 
   1.68855400E-01    4.44634540E-01 
****
H    0
S    3    1.000000
   3.42525091E+00    1.54328970E-01 
   6.23913730E-01    5.35328140E-01 
   1.68855400E-01    4.44634540E-01 
****
H    0
S    3    1.000000
   3.42525091E+00    1.54328970E-01 
   6.23913730E-01    5.35328140E-01 
   1.68855400E-01    4.44634540E-01 
****
C    0
S    3    1.000000
   7.16168370E+01    1.54328970E-01 
   1.30450960E+01    5.35328140E-01 
   3.53051220E+00    4.44634540E-01 
SP   3    1.000000
   2.94124940E+00   -9.99672300E-02   1.55916270E-01 
   6.83483100E-01    3.99512830E-01   6.07683720E-01 
   2.22289900E-01    7.00115470E-01   3.91957390E-01 
****
C    0
S    3    1.000000
   7.16168370E+01    1.54328970E-01 
   1.30450960E+01    5.35328140E-01 
   3.53051220E+00    4.44634540E-01 
SP   3    1.000000
   2.94124940E+00   -9.99672300E-02   1.55916270E-01 
   6.83483100E-01    3.99512830E-01   6.07683720E-01 
   2.22289900E-01    7.00115470E-01   3.91957390E-01 
****
H    0
S    3    1.000000
   3.42525091E+00    1.54328970E-01 
   6.23913730E-01    5.35328140E-01 
   1.68855400E-01    4.44634540E-01 
****
H    0
S    3    1.000000
   3.42525091E+00    1.54328970E-01 
   6.23913730E-01    5.35328140E-01 
   1.68855400E-01    4.44634540E-01 
****
H    0
S    3    1.000000
   3.42525091E+00    1.54328970E-01 
   6.23913730E-01    5.35328140E-01 
   1.68855400E-01    4.44634540E-01 
****
C    0
S    3    1.000000
   7.16168370E+01    1.54328970E-01 
   1.30450960E+01    5.35328140E-01 
   3.53051220E+00    4.44634540E-01 
SP   3    1.000000
   2.94124940E+00   -9.99672300E-02   1.55916270E-01 
   6.83483100E-01    3.99512830E-01   6.07683720E-01 
   2.22289900E-01    7.00115470E-01   3.91957390E-01 
****
C    0
S    3    1.000000
   7.16168370E+01    1.54328970E-01 
   1.30450960E+01    5.35328140E-01 
   3.53051220E+00    4.44634540E-01 
SP   3    1.000000
   2.94124940E+00   -9.99672300E-02   1.55916270E-01 
   6.83483100E-01    3.99512830E-01   6.07683720E-01 
   2.22289900E-01    7.00115470E-01   3.91957390E-01 
****
H    0
S    3    1.000000
   3.42525091E+00    1.54328970E-01 
   6.23913730E-01    5.35328140E-01 
   1.68855400E-01    4.44634540E-01 
****
H    0
S    3    1.000000
   3.42525091E+00    1.54328970E-01 
   6.23913730E-01    5.35328140E-01 
   1.68855400E-01    4.44634540E-01 
****
H    0
S    3    1.000000
   3.42525091E+00    1.54328970E-01 
   6.23913730E-01    5.35328140E-01 
   1.68855400E-01    4.44634540E-01 
****
$end
-----------------------------------------------------------------------
 There are 30 shells and 60 basis functions

 Total QAlloc Memory Limit   2000 MB
 Mega-Array Size       188 MB
 MEM_STATIC part       192 MB
 A cutoff of  1.0D-08 yielded    367 shell pairs
 There are      1648 function pairs
 Smallest overlap matrix eigenvalue = 1.71E-01

 Scale SEOQF with 1.000000e-01/1.000000e-01/1.000000e+00

 Standard Electronic Orientation quadrupole field applied
 Nucleus-field energy     =     0.0000000194 hartrees
 ================ Generating on-the-fly SAD Guess ================
Attempting to make child job directory: /tmp/qchem/qchem1496963//Frg1/
Attempting to make child job directory: /tmp/qchem/qchem1496963//Frg2/
Creating input file /tmp/qchem/qchem1496963/Frg1.input
using default PutDataFrgm: nothing
calling putenv with: QCSCRATCH=/tmp/qchem/qchem1496963/ 
Spawning Job For Fragment 0
Done Job For Fragment 0
calling putenv with: QCSCRATCH=/tmp/qchem 
calling putenv with: QCTHREADS=1 
Creating input file /tmp/qchem/qchem1496963/Frg2.input
using default PutDataFrgm: nothing
calling putenv with: QCSCRATCH=/tmp/qchem/qchem1496963/ 
Spawning Job For Fragment 1
Done Job For Fragment 1
calling putenv with: QCSCRATCH=/tmp/qchem 
calling putenv with: QCTHREADS=1 
 Time for running child jobs:  CPU 0.00 s  wall 0.16 s
 ============= Method Specific SAD Guess Constructed =============
 Guess from on-the-fly superposition of atomic densities
 Warning: Energy on first SCF cycle will be non-variational

 -----------------------------------------------------------------------
  General SCF calculation program by
  Eric Jon Sundstrom, Paul Horn, Yuezhi Mao, Dmitri Zuev, Alec White,
  David Stuck, Shaama M.S., Shane Yost, Joonho Lee, David Small,
  Daniel Levine, Susi Lehtola, Hugh Burton, Evgeny Epifanovsky,
  Bang C. Huynh
 -----------------------------------------------------------------------
 Exchange:     0.2000 Hartree-Fock + 0.0800 Slater + 0.7200 B88
 Correlation:  0.1900 VWN1RPA + 0.8100 LYP
 Using SG-1 standard quadrature grid
 A restricted SCF calculation will be
 performed using DIIS
 SCF converges when DIIS error is below 1.0e-05
 ---------------------------------------
  Cycle       Energy         DIIS error
 ---------------------------------------
    1    -381.9238074836      1.39e-01  
    2    -382.2937214516      3.10e-03  
    3    -382.2939225890      3.37e-03  
    4    -382.2996878623      1.12e-03  
    5    -382.3003411853      3.23e-04  
    6    -382.3003969102      3.18e-05  
    7    -382.3003975729      4.08e-06  Convergence criterion met
 ---------------------------------------
 DFT Correlation Energy =  -2.97911095440186
 DFT Exchange    Energy = -43.84103588959660
 HF Exchange     Energy = -11.06972362415335
 One-Electron    Energy = -1408.66953018177423
 Total Coulomb   Energy = 634.25286486190168
 Final Alpha MO Eigenvalues
            1           2           3           4           5           6
    1 -10.0179353 -10.0178701 -10.0075471 -10.0075458 -10.0066365 -10.0066030
            7           8           9          10          11          12
    1 -10.0055835 -10.0054741  -9.9919309  -9.9919309  -0.8179612  -0.7550403
           13          14          15          16          17          18
    1  -0.7206791  -0.7041263  -0.6701959  -0.5851004  -0.5605877  -0.5319084
           19          20          21          22          23          24
    1  -0.5121190  -0.4619202  -0.4385300  -0.4103908  -0.3995789  -0.3971045
           25          26          27          28          29          30
    1  -0.3755029  -0.3577684  -0.3489575  -0.3301506  -0.3052655  -0.2954409
           31          32          33          34          35          36
    1  -0.2808734  -0.2631445  -0.2160312  -0.1975112  -0.1600518   0.0495877
           37          38          39          40          41          42
    1   0.0907363   0.1164532   0.1814700   0.2803264   0.3192386   0.3295486
           43          44          45          46          47          48
    1   0.3654010   0.3702656   0.4128740   0.4159650   0.4215680   0.4457348
           49          50          51          52          53          54
    1   0.4687676   0.4958746   0.5387739   0.5705497   0.5867598   0.6101372
           55          56          57          58          59          60
    1   0.6265132   0.6457481   0.6928157   0.7430268   0.8062365   0.8160353
 Final Alpha MO Coefficients
            1           2           3           4           5           6
    1  -0.6989653   0.6989087  -0.0342537   0.0346766  -0.0264415  -0.0143637
    2  -0.0318979   0.0316731   0.0033767  -0.0033145   0.0077755   0.0033209
    3   0.0013835  -0.0010355   0.0040827  -0.0040469  -0.0032885  -0.0022057
    4   0.0002793  -0.0002067   0.0006651  -0.0006231   0.0018230   0.0046512
    5   0.0000000   0.0000000  -0.0000000   0.0000000  -0.0000000  -0.0000000
    6   0.0198016  -0.0210729   0.0139713  -0.0200404  -0.6664721  -0.6563397
    7   0.0081609  -0.0072915   0.0008686  -0.0010258  -0.0319434  -0.0315430
    8   0.0026780  -0.0030756  -0.0000233  -0.0000495   0.0018147   0.0018663
    9  -0.0035614   0.0034040  -0.0002091   0.0002801   0.0014439   0.0011640
   10   0.0000000  -0.0000000  -0.0000000   0.0000000  -0.0000000  -0.0000000
   11  -0.0183585  -0.0194550  -0.0092770  -0.0095463   0.2124684   0.2428780
   12  -0.0081153  -0.0072101  -0.0006581  -0.0003785   0.0160173   0.0171141
   13   0.0010602   0.0015058  -0.0001071   0.0000552   0.0045184   0.0043385
   14   0.0043196   0.0043332   0.0001624   0.0002669   0.0005106   0.0004536
   15  -0.0000000  -0.0000000   0.0000000   0.0000000   0.0000000   0.0000000
   16   0.6989653   0.6989087   0.0342537   0.0346766   0.0264415  -0.0143637
   17   0.0318979   0.0316731  -0.0033767  -0.0033145  -0.0077755   0.0033209
   18   0.0013835   0.0010355   0.0040827   0.0040469  -0.0032885   0.0022057
   19   0.0002793   0.0002067   0.0006651   0.0006231   0.0018230  -0.0046512
   20  -0.0000000  -0.0000000   0.0000000   0.0000000   0.0000000   0.0000000
   21  -0.0198016  -0.0210729  -0.0139713  -0.0200404   0.6664721  -0.6563397
   22  -0.0081609  -0.0072915  -0.0008686  -0.0010258   0.0319434  -0.0315430
   23   0.0026780   0.0030756  -0.0000233   0.0000495   0.0018147  -0.0018663
   24  -0.0035614  -0.0034040  -0.0002091  -0.0002801   0.0014439  -0.0011640
   25  -0.0000000  -0.0000000  -0.0000000  -0.0000000   0.0000000  -0.0000000
   26   0.0183585  -0.0194550   0.0092770  -0.0095463  -0.2124684   0.2428780
   27   0.0081153  -0.0072101   0.0006581  -0.0003785  -0.0160173   0.0171141
   28   0.0010602  -0.0015058  -0.0001071  -0.0000552   0.0045184  -0.0043385
   29   0.0043196  -0.0043332   0.0001624  -0.0002669   0.0005106  -0.0004536
   30   0.0000000   0.0000000   0.0000000  -0.0000000  -0.0000000   0.0000000
   31  -0.0003505   0.0002161  -0.0001060   0.0001359   0.0060397   0.0060070
   32   0.0003528   0.0002150  -0.0000352  -0.0000646  -0.0020964  -0.0022780
   33   0.0003505   0.0002161   0.0001060   0.0001359  -0.0060397   0.0060070
   34  -0.0003528   0.0002150   0.0000352  -0.0000646   0.0020964  -0.0022780
   35  -0.0338522  -0.0345040   0.6995011   0.6993308   0.0149441  -0.0148447
   36  -0.0065909  -0.0066879   0.0306123   0.0305864   0.0008053  -0.0006444
   37  -0.0037919  -0.0038414  -0.0013477  -0.0013605  -0.0000461   0.0000897
   38  -0.0008854  -0.0008962   0.0010476   0.0010456   0.0000511   0.0000385
   39  -0.0000000   0.0000000  -0.0000000  -0.0000000  -0.0000000  -0.0000000
   40  -0.0000359  -0.0000215  -0.0055652  -0.0055554  -0.0007573   0.0002187
   41   0.0005524   0.0005589  -0.0077896  -0.0077867  -0.0002858   0.0001819
   42   0.0003083   0.0003182  -0.0032253  -0.0032222  -0.0001392   0.0001021
   43  -0.0000596  -0.0000629   0.0033558   0.0033554   0.0000636  -0.0001004
   44   0.0000000  -0.0000000  -0.0000000  -0.0000000  -0.0000000  -0.0000000
   45   0.0003780   0.0003923  -0.0063659  -0.0063625  -0.0001928   0.0001617
   46  -0.0000309  -0.0000297   0.0002027   0.0002031  -0.0000026  -0.0000023
   47  -0.0001491  -0.0001364   0.0001708   0.0001729   0.0001013   0.0001113
   48   0.0338522  -0.0345040  -0.6995011   0.6993308  -0.0149441  -0.0148447
   49   0.0065909  -0.0066879  -0.0306123   0.0305864  -0.0008053  -0.0006444
   50  -0.0037919   0.0038414  -0.0013477   0.0013605  -0.0000461  -0.0000897
   51  -0.0008854   0.0008962   0.0010476  -0.0010456   0.0000511  -0.0000385
   52   0.0000000   0.0000000   0.0000000  -0.0000000   0.0000000   0.0000000
   53   0.0000359  -0.0000215   0.0055652  -0.0055554   0.0007573   0.0002187
   54  -0.0005524   0.0005589   0.0077896  -0.0077867   0.0002858   0.0001819
   55   0.0003083  -0.0003182  -0.0032253   0.0032222  -0.0001392  -0.0001021
   56  -0.0000596   0.0000629   0.0033558  -0.0033554   0.0000636   0.0001004
   57  -0.0000000   0.0000000  -0.0000000  -0.0000000   0.0000000   0.0000000
   58  -0.0003780   0.0003923   0.0063659  -0.0063625   0.0001928   0.0001617
   59   0.0000309  -0.0000297  -0.0002027   0.0002031   0.0000026  -0.0000023
   60   0.0001491  -0.0001364  -0.0001708   0.0001729  -0.0001013   0.0001113
            7           8           9          10          11          12
    1  -0.0122969   0.0276059   0.0003669  -0.0003754  -0.1081675   0.1018977
    2   0.0040473  -0.0072669   0.0001975  -0.0001964   0.2710747  -0.2673017
    3  -0.0005133   0.0022614   0.0000462  -0.0000446  -0.0491936  -0.0261282
    4  -0.0049566   0.0028148   0.0000456  -0.0000438  -0.0106750   0.0039789
    5   0.0000000  -0.0000000   0.0000000   0.0000000  -0.0000000  -0.0000000
    6   0.2140108   0.2429253   0.0002357  -0.0006448  -0.0990819   0.0361434
    7   0.0030861   0.0045389  -0.0000016   0.0001003   0.2469458  -0.0940436
    8   0.0040541   0.0039074  -0.0001040   0.0000202  -0.0138219  -0.0623411
    9   0.0005760   0.0006765   0.0000108  -0.0000343  -0.0589845   0.0274700
   10  -0.0000000   0.0000000  -0.0000000   0.0000000  -0.0000000   0.0000000
   11   0.6670852   0.6566403  -0.0013821  -0.0014518  -0.0996185  -0.0487805
   12   0.0278478   0.0269410   0.0000143   0.0000335   0.2481200   0.1268788
   13  -0.0004789  -0.0008628  -0.0001663  -0.0001507   0.0348706  -0.0457863
   14  -0.0011258  -0.0008543  -0.0000016   0.0000037  -0.0489358  -0.0485814
   15   0.0000000   0.0000000  -0.0000000  -0.0000000  -0.0000000  -0.0000000
   16   0.0122969   0.0276059  -0.0003669  -0.0003754  -0.1081675  -0.1018977
   17  -0.0040473  -0.0072669  -0.0001975  -0.0001964   0.2710747   0.2673017
   18  -0.0005133  -0.0022614   0.0000462   0.0000446   0.0491936  -0.0261282
   19  -0.0049566  -0.0028148   0.0000456   0.0000438   0.0106750   0.0039789
   20   0.0000000  -0.0000000   0.0000000   0.0000000  -0.0000000  -0.0000000
   21  -0.2140108   0.2429253  -0.0002357  -0.0006448  -0.0990819  -0.0361434
   22  -0.0030861   0.0045389   0.0000016   0.0001003   0.2469458   0.0940436
   23   0.0040541  -0.0039074  -0.0001040  -0.0000202   0.0138219  -0.0623411
   24   0.0005760  -0.0006765   0.0000108   0.0000343   0.0589845   0.0274700
   25   0.0000000   0.0000000  -0.0000000  -0.0000000   0.0000000   0.0000000
   26  -0.6670852   0.6566403   0.0013821  -0.0014518  -0.0996185   0.0487805
   27  -0.0278478   0.0269410  -0.0000143   0.0000335   0.2481200  -0.1268788
   28  -0.0004789   0.0008628  -0.0001663   0.0001507  -0.0348706  -0.0457863
   29  -0.0011258   0.0008543  -0.0000016  -0.0000037   0.0489358  -0.0485814
   30  -0.0000000  -0.0000000  -0.0000000   0.0000000   0.0000000  -0.0000000
   31  -0.0017460  -0.0021679  -0.0000114   0.0000187   0.0432524  -0.0242083
   32  -0.0059630  -0.0060035  -0.0001635  -0.0001634   0.0443977   0.0352712
   33   0.0017460  -0.0021679   0.0000114   0.0000187   0.0432524   0.0242083
   34   0.0059630  -0.0060035   0.0001635  -0.0001634   0.0443977  -0.0352712
   35   0.0040232   0.0146487  -0.0064149  -0.0064207  -0.0436227  -0.1112736
   36   0.0002631   0.0006649   0.0072557   0.0072555   0.1119711   0.2899540
   37   0.0000099  -0.0001700  -0.0032026  -0.0032020   0.0245887   0.0018167
   38  -0.0000073   0.0000449   0.0033177   0.0033172   0.0139295   0.0417431
   39   0.0000000   0.0000000  -0.0000000  -0.0000000   0.0000000   0.0000000
   40  -0.0012486  -0.0016684  -0.7004868  -0.7004866  -0.0229792  -0.0843661
   41  -0.0001741  -0.0003661  -0.0310942  -0.0310938   0.0574243   0.2166864
   42  -0.0001097  -0.0002033  -0.0010084  -0.0010081   0.0189143   0.0506731
   43  -0.0000591   0.0000128   0.0010211   0.0010210  -0.0117055  -0.0404949
   44   0.0000000  -0.0000000   0.0000000   0.0000000   0.0000000   0.0000000
   45  -0.0000675  -0.0002285  -0.0000864  -0.0000859   0.0218878   0.0645238
   46  -0.0000223  -0.0000204   0.0063417   0.0063417   0.0093349   0.0445165
   47   0.0002348   0.0002352   0.0063633   0.0063634   0.0136282   0.0515556
   48  -0.0040232   0.0146487   0.0064149  -0.0064207  -0.0436227   0.1112736
   49  -0.0002631   0.0006649  -0.0072557   0.0072555   0.1119711  -0.2899540
   50   0.0000099   0.0001700  -0.0032026   0.0032020  -0.0245887   0.0018167
   51  -0.0000073  -0.0000449   0.0033177  -0.0033172  -0.0139295   0.0417431
   52   0.0000000   0.0000000  -0.0000000   0.0000000   0.0000000   0.0000000
   53   0.0012486  -0.0016684   0.7004870  -0.7004864  -0.0229792   0.0843661
   54   0.0001741  -0.0003661   0.0310942  -0.0310938   0.0574243  -0.2166864
   55  -0.0001097   0.0002033  -0.0010084   0.0010081  -0.0189143   0.0506731
   56  -0.0000591  -0.0000128   0.0010211  -0.0010210   0.0117055  -0.0404949
   57   0.0000000  -0.0000000  -0.0000000  -0.0000000   0.0000000  -0.0000000
   58   0.0000675  -0.0002285   0.0000864  -0.0000859   0.0218878  -0.0645238
   59   0.0000223  -0.0000204  -0.0063417   0.0063417   0.0093349  -0.0445165
   60  -0.0002348   0.0002352  -0.0063633   0.0063634   0.0136282  -0.0515556
           13          14          15          16          17          18
    1   0.0035998   0.0191015  -0.1021430   0.0622002   0.0645518   0.0102740
    2  -0.0130307  -0.0512555   0.2781731  -0.1816428  -0.1899562  -0.0260826
    3  -0.0909014   0.0303739  -0.0597603  -0.0476394  -0.0759177   0.1188434
    4  -0.0068145  -0.1301256  -0.0247520  -0.1519702   0.1677959   0.0498137
    5  -0.0000000  -0.0000000   0.0000000  -0.0000000   0.0000000   0.0000000
    6  -0.0432812   0.1356975  -0.0398980   0.0219791  -0.1087367   0.0460600
    7   0.1119310  -0.3627595   0.1092867  -0.0637500   0.3181217  -0.1395247
    8  -0.0321608   0.0505986   0.0966904  -0.1700650   0.0039917   0.0026446
    9  -0.0183502   0.0058217  -0.0385937   0.0213709   0.0858289   0.0066329
   10  -0.0000000   0.0000000   0.0000000   0.0000000   0.0000000   0.0000000
   11  -0.0350753   0.1168328   0.0777116  -0.0904961   0.0430918  -0.0247099
   12   0.0904933  -0.3119231  -0.2124454   0.2578548  -0.1263226   0.0744418
   13   0.0487464  -0.0680792   0.0432691  -0.0066889   0.1683080  -0.0744326
   14  -0.0016617  -0.0366032   0.0610979   0.0574631   0.1139602  -0.0320787
   15   0.0000000   0.0000000   0.0000000   0.0000000   0.0000000   0.0000000
   16   0.0035998  -0.0191015   0.1021430   0.0622002   0.0645518  -0.0102740
   17  -0.0130307   0.0512555  -0.2781731  -0.1816428  -0.1899562   0.0260826
   18   0.0909014   0.0303739  -0.0597603   0.0476394   0.0759177   0.1188434
   19   0.0068145  -0.1301256  -0.0247520   0.1519702  -0.1677959   0.0498137
   20   0.0000000  -0.0000000  -0.0000000   0.0000000  -0.0000000  -0.0000000
   21  -0.0432812  -0.1356975   0.0398980   0.0219791  -0.1087367  -0.0460600
   22   0.1119310   0.3627595  -0.1092867  -0.0637500   0.3181217   0.1395247
   23   0.0321608   0.0505986   0.0966904   0.1700650  -0.0039917   0.0026446
   24   0.0183502   0.0058217  -0.0385937  -0.0213709  -0.0858289   0.0066329
   25  -0.0000000  -0.0000000  -0.0000000  -0.0000000  -0.0000000  -0.0000000
   26  -0.0350753  -0.1168328  -0.0777116  -0.0904961   0.0430918   0.0247099
   27   0.0904933   0.3119231   0.2124454   0.2578548  -0.1263226  -0.0744418
   28  -0.0487464  -0.0680792   0.0432691   0.0066889  -0.1683080  -0.0744326
   29   0.0016617  -0.0366032   0.0610979  -0.0574631  -0.1139602  -0.0320787
   30  -0.0000000  -0.0000000  -0.0000000  -0.0000000  -0.0000000  -0.0000000
   31   0.0211687  -0.0977677   0.0303081  -0.0417154   0.1619337  -0.0429045
   32   0.0095686  -0.0856305  -0.0536817   0.1237897  -0.0581265   0.0557865
   33   0.0211687   0.0977677  -0.0303081  -0.0417154   0.1619337   0.0429045
   34   0.0095686   0.0856305   0.0536817   0.1237897  -0.0581265  -0.0557865
   35   0.1203203  -0.0029857  -0.0557427   0.0546795   0.0147694   0.1000438
   36  -0.3162471   0.0095335   0.1466933  -0.1658785  -0.0471086  -0.3068052
   37   0.0589174   0.0179210  -0.1207597  -0.0992982  -0.0938737  -0.0319639
   38  -0.0548186  -0.0216207   0.0438769   0.0895348  -0.0237092   0.1232675
   39  -0.0000000   0.0000000   0.0000000   0.0000000   0.0000000   0.0000000
   40   0.1208027   0.0125695  -0.1077188  -0.0700493  -0.0514774  -0.0804880
   41  -0.3159244  -0.0325167   0.2906316   0.2019626   0.1533113   0.2478792
   42  -0.0537057  -0.0058299   0.0163684  -0.0301703  -0.0587759  -0.0838659
   43   0.0540695  -0.0030464  -0.0388131   0.0471978  -0.0040785   0.1353180
   44  -0.0000000   0.0000000   0.0000000   0.0000000   0.0000000   0.0000000
   45  -0.0753954   0.0113550   0.0391151  -0.0916400   0.0129039  -0.1795745
   46  -0.0746197  -0.0073974   0.0856411   0.0809759   0.0853819   0.1251923
   47  -0.0757786  -0.0148044   0.0723352   0.0996064   0.0389096   0.1655082
   48   0.1203203   0.0029857   0.0557427   0.0546795   0.0147694  -0.1000438
   49  -0.3162471  -0.0095335  -0.1466933  -0.1658785  -0.0471086   0.3068052
   50  -0.0589174   0.0179210  -0.1207597   0.0992982   0.0938737  -0.0319639
   51   0.0548186  -0.0216207   0.0438769  -0.0895348   0.0237092   0.1232675
   52  -0.0000000   0.0000000   0.0000000  -0.0000000  -0.0000000   0.0000000
   53   0.1208027  -0.0125695   0.1077188  -0.0700493  -0.0514774   0.0804880
   54  -0.3159244   0.0325167  -0.2906316   0.2019626   0.1533113  -0.2478792
   55   0.0537057  -0.0058299   0.0163684   0.0301703   0.0587759  -0.0838659
   56  -0.0540695  -0.0030464  -0.0388131  -0.0471978   0.0040785   0.1353180
   57  -0.0000000   0.0000000   0.0000000  -0.0000000  -0.0000000   0.0000000
   58  -0.0753954  -0.0113550  -0.0391151  -0.0916400   0.0129039   0.1795745
   59  -0.0746197   0.0073974  -0.0856411   0.0809759   0.0853819  -0.1251923
   60  -0.0757786   0.0148044  -0.0723352   0.0996064   0.0389096  -0.1655082
           19          20          21          22          23          24
    1   0.0513087  -0.0366660  -0.0111731  -0.0748115   0.0063889   0.0189279
    2  -0.1482516   0.1208468   0.0406964   0.2518563  -0.0255188  -0.0621610
    3   0.1436267   0.1257521   0.1308320  -0.0685614  -0.1034004  -0.0117774
    4  -0.0173388   0.0636125  -0.1452805   0.0000551  -0.2471942  -0.0110900
    5   0.0000000   0.0000000  -0.0000000  -0.0000000   0.0000000   0.0000000
    6  -0.0093403  -0.0133827   0.0138387   0.0442404  -0.0147772  -0.0253718
    7   0.0349401   0.0525106  -0.0456768  -0.1543346   0.0521518   0.0847449
    8  -0.0902531   0.1560242  -0.2013295  -0.0020330  -0.0925379  -0.0647184
    9   0.1836802   0.1308128   0.0079232  -0.2221446   0.1487607  -0.0006840
   10   0.0000000   0.0000000  -0.0000000  -0.0000000   0.0000000   0.0000000
   11  -0.0528463   0.0226014  -0.0353006  -0.0409269   0.0356131   0.0199771
   12   0.1683147  -0.0630058   0.1150803   0.1438761  -0.1162469  -0.0730944
   13  -0.0459327  -0.1502009   0.1299987  -0.1388150   0.0534205   0.1211385
   14   0.1956784   0.0699166   0.0995917   0.1968166   0.2174865  -0.0281252
   15   0.0000000   0.0000000  -0.0000000  -0.0000000   0.0000000   0.0000000
   16   0.0513087  -0.0366660   0.0111731   0.0748115  -0.0063889   0.0189279
   17  -0.1482516   0.1208468  -0.0406964  -0.2518563   0.0255188  -0.0621610
   18  -0.1436267  -0.1257521   0.1308320  -0.0685614  -0.1034004   0.0117774
   19   0.0173388  -0.0636125  -0.1452805   0.0000551  -0.2471942   0.0110900
   20   0.0000000  -0.0000000  -0.0000000  -0.0000000   0.0000000   0.0000000
   21  -0.0093403  -0.0133827  -0.0138387  -0.0442404   0.0147772  -0.0253718
   22   0.0349401   0.0525106   0.0456768   0.1543346  -0.0521518   0.0847449
   23   0.0902531  -0.1560242  -0.2013295  -0.0020330  -0.0925379   0.0647184
   24  -0.1836802  -0.1308128   0.0079232  -0.2221446   0.1487607   0.0006840
   25   0.0000000  -0.0000000  -0.0000000  -0.0000000  -0.0000000   0.0000000
   26  -0.0528463   0.0226014   0.0353006   0.0409269  -0.0356131   0.0199771
   27   0.1683147  -0.0630058  -0.1150803  -0.1438761   0.1162469  -0.0730944
   28   0.0459327   0.1502009   0.1299987  -0.1388150   0.0534205  -0.1211385
   29  -0.1956784  -0.0699166   0.0995917   0.1968166   0.2174865   0.0281252
   30   0.0000000  -0.0000000  -0.0000000  -0.0000000  -0.0000000   0.0000000
   31   0.1029382   0.1319791  -0.0679155  -0.2422537   0.1165410   0.0164496
   32   0.1651122   0.0911801   0.0319239   0.2653104   0.0745852  -0.1063342
   33   0.1029382   0.1319791   0.0679155   0.2422537  -0.1165410   0.0164496
   34   0.1651122   0.0911801  -0.0319239  -0.2653104  -0.0745852  -0.1063342
   35  -0.0592131   0.0425045   0.0190222  -0.0112105  -0.0024665  -0.0233289
   36   0.1810208  -0.1324805  -0.0559059   0.0317701   0.0185021   0.0611710
   37   0.0080521   0.1827995  -0.0751747  -0.0470622   0.1949435  -0.0770881
   38  -0.0683214   0.1050463  -0.2175311  -0.0164558  -0.0348810   0.2820045
   39   0.0000000   0.0000000   0.0000000  -0.0000000   0.0000000   0.0000000
   40   0.0550275  -0.0143371  -0.0122606   0.0131246   0.0007456  -0.0073134
   41  -0.1731525   0.0546239   0.0486699  -0.0473507   0.0093171   0.0059364
   42   0.0820021   0.0229819  -0.2363994   0.0995197   0.0452795   0.3275111
   43  -0.0773873   0.2066896  -0.0416120   0.0108130   0.2394100  -0.0674773
   44  -0.0000000   0.0000000   0.0000000  -0.0000000   0.0000000   0.0000000
   45   0.1142574  -0.1483487   0.1444792   0.0525385  -0.0025989  -0.1758754
   46  -0.1057710  -0.0201658   0.1926977  -0.0994952  -0.0726224  -0.2443637
   47  -0.0892987   0.1740269  -0.0465914   0.0377748   0.2035741  -0.0054845
   48  -0.0592131   0.0425045  -0.0190222   0.0112105   0.0024665  -0.0233289
   49   0.1810208  -0.1324805   0.0559059  -0.0317701  -0.0185021   0.0611710
   50  -0.0080521  -0.1827995  -0.0751747  -0.0470622   0.1949435   0.0770881
   51   0.0683214  -0.1050463  -0.2175311  -0.0164558  -0.0348810  -0.2820045
   52   0.0000000   0.0000000   0.0000000  -0.0000000   0.0000000   0.0000000
   53   0.0550275  -0.0143371   0.0122606  -0.0131246  -0.0007456  -0.0073134
   54  -0.1731525   0.0546239  -0.0486699   0.0473507  -0.0093171   0.0059364
   55  -0.0820021  -0.0229819  -0.2363994   0.0995197   0.0452795  -0.3275111
   56   0.0773873  -0.2066896  -0.0416120   0.0108130   0.2394100   0.0674773
   57   0.0000000   0.0000000   0.0000000   0.0000000   0.0000000   0.0000000
   58   0.1142574  -0.1483487  -0.1444792  -0.0525385   0.0025989  -0.1758754
   59  -0.1057710  -0.0201658  -0.1926977   0.0994952   0.0726224  -0.2443637
   60  -0.0892987   0.1740269   0.0465914  -0.0377748  -0.2035741  -0.0054845
           25          26          27          28          29          30
    1   0.0017388  -0.0046181   0.0269615   0.0000000  -0.0119866  -0.0033492
    2  -0.0089771   0.0178041  -0.0952292  -0.0000000   0.0556812   0.0081011
    3  -0.1254318   0.1313377  -0.0191090   0.0000000   0.2775049  -0.1365243
    4   0.0408822  -0.1659664   0.0918772  -0.0000000   0.0787875   0.2867301
    5   0.0000000   0.0000000  -0.0000000  -0.3360663   0.0000000  -0.0000000
    6  -0.0338410   0.0139750   0.0007989  -0.0000000   0.0109937  -0.0076998
    7   0.1075637  -0.0502007  -0.0122528   0.0000000  -0.0362702   0.0188931
    8  -0.1391570  -0.2382631  -0.1233423  -0.0000000  -0.0005141   0.1735973
    9  -0.2870113   0.0432812  -0.1396062   0.0000000   0.0682518  -0.2426566
   10   0.0000000   0.0000000  -0.0000000  -0.3013907   0.0000000  -0.0000000
   11  -0.0076774  -0.0090274  -0.0005653   0.0000000  -0.0152119   0.0088767
   12   0.0199585   0.0286962   0.0000668  -0.0000000   0.0505173  -0.0195764
   13   0.2369783   0.2004268   0.1452538   0.0000000   0.0406075  -0.1244060
   14  -0.1475429   0.0921307   0.0652076   0.0000000  -0.1382877   0.2464692
   15   0.0000000   0.0000000  -0.0000000  -0.3013352   0.0000000  -0.0000000
   16  -0.0017388   0.0046181   0.0269615  -0.0000000   0.0119866  -0.0033492
   17   0.0089771  -0.0178041  -0.0952292   0.0000000  -0.0556812   0.0081011
   18  -0.1254318   0.1313377   0.0191090   0.0000000   0.2775049   0.1365243
   19   0.0408822  -0.1659664  -0.0918772  -0.0000000   0.0787875  -0.2867301
   20   0.0000000   0.0000000  -0.0000000  -0.3360663  -0.0000000  -0.0000000
   21   0.0338410  -0.0139750   0.0007989   0.0000000  -0.0109937  -0.0076998
   22  -0.1075637   0.0502007  -0.0122528   0.0000000   0.0362702   0.0188931
   23  -0.1391570  -0.2382631   0.1233423  -0.0000000  -0.0005141  -0.1735973
   24  -0.2870113   0.0432812   0.1396062   0.0000000   0.0682518   0.2426566
   25   0.0000000   0.0000000  -0.0000000  -0.3013907  -0.0000000  -0.0000000
   26   0.0076774   0.0090274  -0.0005653  -0.0000000   0.0152119   0.0088767
   27  -0.0199585  -0.0286962   0.0000668  -0.0000000  -0.0505173  -0.0195764
   28   0.2369783   0.2004268  -0.1452538   0.0000000   0.0406075   0.1244060
   29  -0.1475429   0.0921307  -0.0652076   0.0000000  -0.1382877  -0.2464692
   30   0.0000000   0.0000000  -0.0000000  -0.3013352  -0.0000000  -0.0000000
   31  -0.2212696  -0.0468134  -0.1531462   0.0000000   0.0307295  -0.1918129
   32  -0.2111413  -0.0450447   0.0032502  -0.0000000  -0.0620840   0.2843489
   33   0.2212696   0.0468134  -0.1531462   0.0000000  -0.0307295  -0.1918129
   34   0.2111413   0.0450447   0.0032502   0.0000000   0.0620840   0.2843489
   35   0.0018602  -0.0010264  -0.0187359   0.0000000   0.0038653   0.0070641
   36   0.0007002  -0.0162968   0.0761604  -0.0000000  -0.0178150  -0.0361032
   37   0.1356704  -0.1505758   0.0688548  -0.0000000  -0.2107341  -0.1089064
   38  -0.0040441   0.2401980  -0.1757619   0.0000000  -0.1703389   0.0589304
   39   0.0000000   0.0000000   0.0000000  -0.1567766   0.0000000  -0.0000000
   40  -0.0047619  -0.0215192   0.0082297  -0.0000000  -0.0027368  -0.0063518
   41   0.0244695   0.0571013  -0.0193237   0.0000000   0.0066863   0.0155088
   42  -0.0018872   0.2083065   0.1139292   0.0000000   0.1843639   0.0557203
   43   0.1470997  -0.1621194   0.2870777  -0.0000000   0.1614351  -0.1173562
   44  -0.0000000   0.0000000   0.0000000  -0.0864999   0.0000000  -0.0000000
   45  -0.0115977  -0.1842014   0.1818589  -0.0000000   0.2261685  -0.0691553
   46  -0.0128653  -0.1251360  -0.1740429  -0.0000000  -0.2317631  -0.0250419
   47   0.1035533  -0.0840872   0.2747745  -0.0000000   0.2213770  -0.0520487
   48  -0.0018602   0.0010264  -0.0187359  -0.0000000  -0.0038653   0.0070641
   49  -0.0007002   0.0162968   0.0761604   0.0000000   0.0178150  -0.0361032
   50   0.1356704  -0.1505758  -0.0688548  -0.0000000  -0.2107341   0.1089064
   51  -0.0040441   0.2401980   0.1757619   0.0000000  -0.1703389  -0.0589304
   52   0.0000000   0.0000000   0.0000000  -0.1567766   0.0000000   0.0000000
   53   0.0047619   0.0215192   0.0082297   0.0000000   0.0027368  -0.0063518
   54  -0.0244695  -0.0571013  -0.0193237  -0.0000000  -0.0066863   0.0155088
   55  -0.0018872   0.2083065  -0.1139292   0.0000000   0.1843639  -0.0557203
   56   0.1470997  -0.1621194  -0.2870777  -0.0000000   0.1614351   0.1173562
   57   0.0000000   0.0000000   0.0000000  -0.0864999   0.0000000   0.0000000
   58   0.0115977   0.1842014   0.1818589   0.0000000  -0.2261685  -0.0691553
   59   0.0128653   0.1251360  -0.1740429   0.0000000   0.2317631  -0.0250419
   60  -0.1035533   0.0840872   0.2747745  -0.0000000  -0.2213770  -0.0520487
           31          32          33          34          35          36
    1   0.0090977  -0.0000000   0.0000000   0.0000000   0.0000000   0.0000000
    2  -0.0527269   0.0000000  -0.0000000  -0.0000000  -0.0000000  -0.0000000
    3  -0.2575319  -0.0000000   0.0000000  -0.0000000   0.0000000  -0.0000000
    4  -0.1356727   0.0000000  -0.0000000  -0.0000000  -0.0000000   0.0000000
    5   0.0000000  -0.3435479   0.0208193  -0.0175103  -0.3902898  -0.4491965
    6   0.0053185   0.0000000   0.0000000   0.0000000  -0.0000000  -0.0000000
    7  -0.0142427  -0.0000000   0.0000000   0.0000000   0.0000000  -0.0000000
    8   0.2231562   0.0000000   0.0000000   0.0000000   0.0000000  -0.0000000
    9   0.0786838  -0.0000000   0.0000000   0.0000000   0.0000000   0.0000000
   10   0.0000000  -0.1313617   0.1642500  -0.4693381  -0.2069404   0.2284945
   11   0.0019193  -0.0000000  -0.0000000  -0.0000000   0.0000000   0.0000000
   12  -0.0075727   0.0000000   0.0000000   0.0000000  -0.0000000  -0.0000000
   13  -0.2181488  -0.0000000  -0.0000000  -0.0000000  -0.0000000   0.0000000
   14  -0.1642093  -0.0000000  -0.0000000  -0.0000000  -0.0000000   0.0000000
   15  -0.0000000   0.1411524   0.1575049  -0.4507992   0.2418231   0.2872341
   16   0.0090977   0.0000000   0.0000000   0.0000000   0.0000000  -0.0000000
   17  -0.0527269  -0.0000000  -0.0000000  -0.0000000   0.0000000   0.0000000
   18   0.2575319   0.0000000   0.0000000   0.0000000   0.0000000  -0.0000000
   19   0.1356727  -0.0000000  -0.0000000  -0.0000000  -0.0000000  -0.0000000
   20  -0.0000000   0.3435479   0.0208193   0.0175103   0.3902898  -0.4491965
   21   0.0053185  -0.0000000  -0.0000000  -0.0000000  -0.0000000   0.0000000
   22  -0.0142427   0.0000000   0.0000000   0.0000000  -0.0000000  -0.0000000
   23  -0.2231562  -0.0000000  -0.0000000  -0.0000000   0.0000000   0.0000000
   24  -0.0786838   0.0000000   0.0000000   0.0000000   0.0000000  -0.0000000
   25  -0.0000000   0.1313617   0.1642500   0.4693381   0.2069404   0.2284945
   26   0.0019193   0.0000000   0.0000000   0.0000000  -0.0000000  -0.0000000
   27  -0.0075727  -0.0000000  -0.0000000  -0.0000000   0.0000000   0.0000000
   28   0.2181488   0.0000000   0.0000000   0.0000000  -0.0000000  -0.0000000
   29   0.1642093  -0.0000000   0.0000000  -0.0000000   0.0000000  -0.0000000
   30  -0.0000000  -0.1411524   0.1575049   0.4507992  -0.2418231   0.2872341
   31   0.1809865   0.0000000   0.0000000   0.0000000   0.0000000  -0.0000000
   32   0.0543675   0.0000000   0.0000000   0.0000000   0.0000000  -0.0000000
   33   0.1809865   0.0000000   0.0000000   0.0000000  -0.0000000  -0.0000000
   34   0.0543675   0.0000000   0.0000000   0.0000000  -0.0000000  -0.0000000
   35   0.0223151   0.0000000   0.0000000   0.0000000  -0.0000000   0.0000000
   36  -0.0926333  -0.0000000  -0.0000000  -0.0000000   0.0000000  -0.0000000
   37  -0.2700152  -0.0000000  -0.0000000  -0.0000000   0.0000000  -0.0000000
   38  -0.1147398  -0.0000000  -0.0000000  -0.0000000   0.0000000  -0.0000000
   39   0.0000000   0.3718448  -0.4184175  -0.0004443  -0.2311883  -0.2733844
   40  -0.0036625  -0.0000000  -0.0000000  -0.0000000   0.0000000  -0.0000000
   41   0.0063557   0.0000000   0.0000000  -0.0000000  -0.0000000   0.0000000
   42   0.1288034   0.0000000   0.0000000   0.0000000  -0.0000000  -0.0000000
   43   0.0365905   0.0000000   0.0000000   0.0000000  -0.0000000  -0.0000000
   44   0.0000000   0.2806696  -0.4238461  -0.0133585  -0.3820382   0.4419281
   45   0.1690167   0.0000000   0.0000000   0.0000000   0.0000000  -0.0000000
   46  -0.1558254  -0.0000000  -0.0000000  -0.0000000   0.0000000  -0.0000000
   47   0.1150765   0.0000000   0.0000000   0.0000000  -0.0000000   0.0000000
   48   0.0223151   0.0000000  -0.0000000  -0.0000000   0.0000000  -0.0000000
   49  -0.0926333  -0.0000000   0.0000000   0.0000000  -0.0000000   0.0000000
   50   0.2700152   0.0000000   0.0000000   0.0000000   0.0000000   0.0000000
   51   0.1147398  -0.0000000  -0.0000000  -0.0000000  -0.0000000  -0.0000000
   52   0.0000000  -0.3718448  -0.4184175   0.0004443   0.2311883  -0.2733844
   53  -0.0036625   0.0000000   0.0000000   0.0000000   0.0000000   0.0000000
   54   0.0063557   0.0000000  -0.0000000  -0.0000000  -0.0000000  -0.0000000
   55  -0.1288034  -0.0000000  -0.0000000   0.0000000  -0.0000000  -0.0000000
   56  -0.0365905   0.0000000   0.0000000  -0.0000000  -0.0000000  -0.0000000
   57   0.0000000  -0.2806696  -0.4238461   0.0133585   0.3820382   0.4419281
   58   0.1690167  -0.0000000  -0.0000000   0.0000000   0.0000000   0.0000000
   59  -0.1558254  -0.0000000  -0.0000000  -0.0000000   0.0000000   0.0000000
   60   0.1150765   0.0000000   0.0000000   0.0000000  -0.0000000  -0.0000000
           37          38          39          40          41          42
    1   0.0000000  -0.0000000   0.0000000   0.0000000  -0.0692775   0.0546428
    2  -0.0000000   0.0000000  -0.0000000  -0.0000000   0.3977390  -0.3099733
    3   0.0000000   0.0000000  -0.0000000  -0.0000000   0.3315103  -0.2690864
    4   0.0000000  -0.0000000  -0.0000000  -0.0000000   0.0878856  -0.2240996
    5  -0.0363076  -0.0254359  -0.4936676  -0.5474252  -0.0000000  -0.0000000
    6   0.0000000  -0.0000000  -0.0000000   0.0000000  -0.0330550  -0.0140121
    7   0.0000000   0.0000000   0.0000000  -0.0000000   0.2018472   0.0751623
    8   0.0000000   0.0000000   0.0000000   0.0000000   0.0398851  -0.0764638
    9   0.0000000  -0.0000000  -0.0000000  -0.0000000   0.2718631  -0.2957980
   10   0.5864503   0.2167877   0.1763924   0.4777098   0.0000000   0.0000000
   11  -0.0000000  -0.0000000  -0.0000000   0.0000000  -0.0429324   0.0306147
   12   0.0000000   0.0000000   0.0000000  -0.0000000   0.2586873  -0.1798640
   13  -0.0000000  -0.0000000  -0.0000000   0.0000000  -0.1229831  -0.0323408
   14   0.0000000   0.0000000  -0.0000000  -0.0000000   0.1824016  -0.2235479
   15  -0.5516418  -0.2090773   0.2066238  -0.4798653  -0.0000000  -0.0000000
   16   0.0000000   0.0000000   0.0000000   0.0000000  -0.0692775  -0.0546428
   17  -0.0000000   0.0000000  -0.0000000  -0.0000000   0.3977390   0.3099733
   18  -0.0000000   0.0000000   0.0000000   0.0000000  -0.3315103  -0.2690864
   19   0.0000000  -0.0000000   0.0000000   0.0000000  -0.0878856  -0.2240996
   20  -0.0363076   0.0254359  -0.4936676   0.5474252   0.0000000   0.0000000
   21  -0.0000000  -0.0000000  -0.0000000   0.0000000  -0.0330550   0.0140121
   22   0.0000000   0.0000000   0.0000000  -0.0000000   0.2018472  -0.0751623
   23  -0.0000000   0.0000000  -0.0000000   0.0000000  -0.0398851  -0.0764638
   24  -0.0000000  -0.0000000   0.0000000   0.0000000  -0.2718631  -0.2957980
   25   0.5864503  -0.2167877   0.1763924  -0.4777098  -0.0000000  -0.0000000
   26  -0.0000000   0.0000000   0.0000000   0.0000000  -0.0429324  -0.0306147
   27   0.0000000  -0.0000000  -0.0000000  -0.0000000   0.2586873   0.1798640
   28  -0.0000000   0.0000000  -0.0000000  -0.0000000   0.1229831  -0.0323408
   29   0.0000000  -0.0000000   0.0000000   0.0000000  -0.1824016  -0.2235479
   30  -0.5516418   0.2090773   0.2066238   0.4798653   0.0000000   0.0000000
   31  -0.0000000   0.0000000   0.0000000   0.0000000  -0.4098714   0.2713623
   32  -0.0000000  -0.0000000   0.0000000   0.0000000  -0.4067245   0.2137781
   33  -0.0000000  -0.0000000  -0.0000000   0.0000000  -0.4098714  -0.2713623
   34   0.0000000  -0.0000000   0.0000000   0.0000000  -0.4067245  -0.2137781
   35   0.0000000  -0.0000000   0.0000000  -0.0000000   0.0597096   0.0184570
   36   0.0000000   0.0000000   0.0000000   0.0000000  -0.3286147  -0.0970677
   37   0.0000000  -0.0000000   0.0000000   0.0000000  -0.3838464  -0.3423681
   38  -0.0000000   0.0000000   0.0000000   0.0000000  -0.1909063  -0.2823739
   39   0.0013339   0.5355452   0.5216122  -0.2609532  -0.0000000  -0.0000000
   40  -0.0000000   0.0000000   0.0000000   0.0000000  -0.0383134   0.0062404
   41   0.0000000  -0.0000000  -0.0000000  -0.0000000   0.2184032  -0.0372411
   42   0.0000000   0.0000000   0.0000000   0.0000000  -0.1462697  -0.2082843
   43   0.0000000  -0.0000000   0.0000000   0.0000000  -0.0913279  -0.3141990
   44   0.0186346  -0.5351142  -0.3859132   0.1430016   0.0000000   0.0000000
   45  -0.0000000   0.0000000   0.0000000   0.0000000  -0.0707275  -0.3235215
   46  -0.0000000   0.0000000   0.0000000   0.0000000  -0.3378546  -0.2903582
   47  -0.0000000   0.0000000  -0.0000000  -0.0000000   0.0992981   0.3832337
   48   0.0000000   0.0000000  -0.0000000  -0.0000000   0.0597096  -0.0184570
   49  -0.0000000  -0.0000000   0.0000000   0.0000000  -0.3286147   0.0970677
   50   0.0000000   0.0000000  -0.0000000  -0.0000000   0.3838464  -0.3423681
   51  -0.0000000  -0.0000000   0.0000000  -0.0000000   0.1909063  -0.2823739
   52   0.0013339  -0.5355452   0.5216122   0.2609532   0.0000000   0.0000000
   53   0.0000000  -0.0000000  -0.0000000   0.0000000  -0.0383134  -0.0062404
   54  -0.0000000   0.0000000   0.0000000  -0.0000000   0.2184032   0.0372411
   55  -0.0000000  -0.0000000   0.0000000  -0.0000000   0.1462697  -0.2082843
   56   0.0000000  -0.0000000   0.0000000  -0.0000000   0.0913279  -0.3141990
   57   0.0186346   0.5351142  -0.3859132  -0.1430016  -0.0000000  -0.0000000
   58   0.0000000   0.0000000  -0.0000000  -0.0000000  -0.0707275   0.3235215
   59   0.0000000   0.0000000  -0.0000000   0.0000000  -0.3378546   0.2903582
   60   0.0000000  -0.0000000   0.0000000   0.0000000   0.0992981  -0.3832337
           43          44          45          46          47          48
    1   0.0412047  -0.0342459   0.0688676   0.0407924   0.0395350  -0.1161173
    2  -0.2283458   0.2059493  -0.3998012  -0.2420223  -0.2440147   0.7084840
    3  -0.4390931   0.0093615  -0.0648171  -0.1959757   0.1428743   0.0441883
    4   0.0794967   0.0292010   0.1014017   0.2068372   0.1609434   0.0408823
    5   0.0000000  -0.0000000   0.0000000  -0.0000000  -0.0000000  -0.0000000
    6  -0.0157026   0.0375457  -0.0650446   0.0737114  -0.0720996   0.0917948
    7   0.0948214  -0.2311366   0.3872549  -0.4556956   0.4442678  -0.5771883
    8  -0.2199039  -0.1435033  -0.0662097   0.1297025   0.2377553  -0.2550973
    9   0.1478373   0.0097249   0.1118734  -0.0474865   0.3789598  -0.1001688
   10   0.0000000   0.0000000   0.0000000   0.0000000   0.0000000   0.0000000
   11  -0.0104265   0.0429935   0.0916668  -0.0856197   0.0230288   0.0496396
   12   0.0687098  -0.2657567  -0.5576278   0.5264419  -0.1319614  -0.3138138
   13  -0.3451838   0.2031644   0.0990529   0.0179858   0.0607704   0.2563409
   14   0.2629750  -0.1552693  -0.0222223  -0.0015554   0.2462241   0.1928060
   15   0.0000000  -0.0000000  -0.0000000  -0.0000000  -0.0000000   0.0000000
   16  -0.0412047  -0.0342459  -0.0688676   0.0407924  -0.0395350  -0.1161173
   17   0.2283458   0.2059493   0.3998012  -0.2420223   0.2440147   0.7084840
   18  -0.4390931  -0.0093615  -0.0648171   0.1959757   0.1428743  -0.0441883
   19   0.0794967  -0.0292010   0.1014017  -0.2068372   0.1609434  -0.0408823
   20   0.0000000   0.0000000   0.0000000   0.0000000   0.0000000   0.0000000
   21   0.0157026   0.0375457   0.0650446   0.0737114   0.0720996   0.0917948
   22  -0.0948214  -0.2311366  -0.3872549  -0.4556956  -0.4442678  -0.5771883
   23  -0.2199039   0.1435033  -0.0662097  -0.1297025   0.2377553   0.2550973
   24   0.1478373  -0.0097249   0.1118734   0.0474865   0.3789598   0.1001688
   25  -0.0000000  -0.0000000   0.0000000  -0.0000000  -0.0000000   0.0000000
   26   0.0104265   0.0429935  -0.0916668  -0.0856197  -0.0230288   0.0496396
   27  -0.0687098  -0.2657567   0.5576278   0.5264419   0.1319614  -0.3138138
   28  -0.3451838  -0.2031644   0.0990529  -0.0179858   0.0607704  -0.2563409
   29   0.2629750   0.1552693  -0.0222223   0.0015554   0.2462241  -0.1928060
   30   0.0000000   0.0000000   0.0000000   0.0000000   0.0000000   0.0000000
   31  -0.1045427   0.1915384  -0.2798722   0.2530080  -0.6681341   0.4130518
   32  -0.4619592   0.3227608   0.3024431  -0.1813227  -0.0667268   0.1948467
   33   0.1045427   0.1915384   0.2798722   0.2530080   0.6681341   0.4130518
   34   0.4619592   0.3227608  -0.3024431  -0.1813227   0.0667268   0.1948467
   35   0.0994277  -0.0552083   0.0600588  -0.0462778  -0.0521164   0.0986437
   36  -0.5729938   0.3337999  -0.3780736   0.2922131   0.3306846  -0.5995237
   37  -0.2804623  -0.1488598  -0.1368680   0.1889519  -0.0315414  -0.0831190
   38   0.0412247  -0.2861654   0.2612996  -0.2410559  -0.1854168   0.1420664
   39   0.0000000  -0.0000000  -0.0000000  -0.0000000   0.0000000  -0.0000000
   40  -0.0567573   0.0435700   0.0812261  -0.0979895  -0.0030941  -0.0622990
   41   0.3297719  -0.2555074  -0.5160794   0.6199621   0.0258543   0.3769561
   42  -0.0510222  -0.2686685   0.2183118  -0.1887239  -0.2886250  -0.0421214
   43   0.0450962  -0.3344465  -0.1984459   0.1793375  -0.0957852  -0.0392464
   44  -0.0000000  -0.0000000  -0.0000000  -0.0000000  -0.0000000   0.0000000
   45   0.2985450  -0.5215750   0.3811059  -0.3416232  -0.3690766   0.3989754
   46  -0.2455696  -0.2021572   0.4156266  -0.4405380  -0.2967074  -0.2391043
   47  -0.1420562   0.5034054   0.3383142  -0.3950363   0.1688513  -0.1650266
   48  -0.0994277  -0.0552083  -0.0600588  -0.0462778   0.0521164   0.0986437
   49   0.5729938   0.3337999   0.3780736   0.2922131  -0.3306846  -0.5995237
   50  -0.2804623   0.1488598  -0.1368680  -0.1889519  -0.0315414   0.0831190
   51   0.0412247   0.2861654   0.2612996   0.2410559  -0.1854168  -0.1420664
   52   0.0000000  -0.0000000  -0.0000000   0.0000000   0.0000000   0.0000000
   53   0.0567573   0.0435700  -0.0812261  -0.0979895   0.0030941  -0.0622990
   54  -0.3297719  -0.2555074   0.5160794   0.6199621  -0.0258543   0.3769561
   55  -0.0510222   0.2686685   0.2183118   0.1887239  -0.2886250   0.0421214
   56   0.0450962   0.3344465  -0.1984459  -0.1793375  -0.0957852   0.0392464
   57   0.0000000  -0.0000000   0.0000000   0.0000000  -0.0000000  -0.0000000
   58  -0.2985450  -0.5215750  -0.3811059  -0.3416232   0.3690766   0.3989754
   59   0.2455696  -0.2021572  -0.4156266  -0.4405380   0.2967074  -0.2391043
   60   0.1420562   0.5034054  -0.3383142  -0.3950363  -0.1688513  -0.1650266
           49          50          51          52          53          54
    1   0.0578801  -0.0157206  -0.0977641  -0.0022682  -0.0026070  -0.0744636
    2  -0.3529218   0.0975991   0.6601557  -0.0001842   0.0163366   0.5222078
    3   0.1347722   0.0099826  -0.5644499  -0.0865489  -0.0655257  -0.0010041
    4  -0.1361000   0.3624922  -0.1334094   0.5354209   0.2034958   0.3122568
    5   0.0000000  -0.0000000  -0.0000000  -0.0000000  -0.0000000  -0.0000000
    6  -0.0531121   0.1099164   0.0300094   0.1011636   0.0232909  -0.0212585
    7   0.3264120  -0.7050028  -0.2003538  -0.6897036  -0.1661934   0.1439762
    8   0.1808870   0.1737243  -0.2129544  -0.0137506   0.2673935  -0.7684164
    9  -0.1370343   0.0160468   0.4335700  -0.0024305   0.6021570   0.2353285
   10   0.0000000   0.0000000  -0.0000000   0.0000000  -0.0000000  -0.0000000
   11   0.0618796  -0.1141665   0.0537171   0.0142267  -0.0177711   0.0845048
   12  -0.3812305   0.7345431  -0.3545432  -0.1127353   0.1307274  -0.5909617
   13   0.1983039   0.1697838  -0.0202112   0.4796005   0.4952722  -0.3462610
   14  -0.1608595   0.1040813   0.4141675   0.2934624  -0.4273365  -0.3662532
   15   0.0000000  -0.0000000  -0.0000000  -0.0000000  -0.0000000  -0.0000000
   16  -0.0578801  -0.0157206  -0.0977641   0.0022682  -0.0026070   0.0744636
   17   0.3529218   0.0975991   0.6601557   0.0001842   0.0163366  -0.5222078
   18   0.1347722  -0.0099826   0.5644499  -0.0865489   0.0655257  -0.0010041
   19  -0.1361000  -0.3624922   0.1334094   0.5354209  -0.2034958   0.3122568
   20   0.0000000   0.0000000  -0.0000000   0.0000000  -0.0000000  -0.0000000
   21   0.0531121   0.1099164   0.0300094  -0.1011636   0.0232909   0.0212585
   22  -0.3264120  -0.7050028  -0.2003538   0.6897036  -0.1661934  -0.1439762
   23   0.1808870  -0.1737243   0.2129544  -0.0137506  -0.2673935  -0.7684164
   24  -0.1370343  -0.0160468  -0.4335700  -0.0024305  -0.6021570   0.2353285
   25   0.0000000  -0.0000000   0.0000000   0.0000000  -0.0000000  -0.0000000
   26  -0.0618796  -0.1141665   0.0537171  -0.0142267  -0.0177711  -0.0845048
   27   0.3812305   0.7345431  -0.3545432   0.1127353   0.1307274   0.5909617
   28   0.1983039  -0.1697838   0.0202112   0.4796005  -0.4952722  -0.3462610
   29  -0.1608595  -0.1040813  -0.4141675   0.2934624   0.4273365  -0.3662532
   30   0.0000000   0.0000000   0.0000000   0.0000000  -0.0000000   0.0000000
   31  -0.0850398   0.2674086  -0.1779723   0.2822784  -0.4516665  -0.0485257
   32   0.5026934  -0.3711842  -0.0855380   0.0883787   0.4655319   0.2766901
   33   0.0850398   0.2674086  -0.1779723  -0.2822784  -0.4516665   0.0485257
   34  -0.5026934  -0.3711842  -0.0855380  -0.0883787   0.4655319  -0.2766901
   35   0.0643112   0.0157429  -0.0567273  -0.0086600   0.0400599  -0.0473203
   36  -0.3932563  -0.1199081   0.3736126   0.0718825  -0.2822091   0.3244292
   37   0.1518852  -0.1077780  -0.0836362   0.0333589   0.1847069   0.0707541
   38   0.0519183  -0.0068022  -0.1445097   0.3323757  -0.0808117   0.0406996
   39   0.0000000  -0.0000000  -0.0000000  -0.0000000  -0.0000000  -0.0000000
   40  -0.1146030   0.0659779   0.0216042   0.0127478  -0.0413316  -0.0023292
   41   0.7241138  -0.4259977  -0.1395230  -0.0999890   0.2836346   0.0184775
   42  -0.0831608   0.3359256   0.1625763  -0.4619316   0.1960969  -0.2006041
   43   0.0964257  -0.1322184   0.2968342  -0.1086101  -0.1064777   0.1183568
   44  -0.0000000  -0.0000000  -0.0000000  -0.0000000  -0.0000000  -0.0000000
   45   0.2750687  -0.0095021  -0.2678399   0.2550749   0.0968654  -0.0994211
   46  -0.3913662   0.4464453   0.2472921  -0.3399876   0.0211621  -0.1321303
   47  -0.4877690   0.3037020  -0.1835016   0.2081830  -0.1281908  -0.1132110
   48  -0.0643112   0.0157429  -0.0567273   0.0086600   0.0400599   0.0473203
   49   0.3932563  -0.1199081   0.3736126  -0.0718825  -0.2822091  -0.3244292
   50   0.1518852   0.1077780   0.0836362   0.0333589  -0.1847069   0.0707541
   51   0.0519183   0.0068022   0.1445097   0.3323757   0.0808117   0.0406996
   52  -0.0000000   0.0000000  -0.0000000  -0.0000000  -0.0000000  -0.0000000
   53   0.1146030   0.0659779   0.0216042  -0.0127478  -0.0413316   0.0023292
   54  -0.7241138  -0.4259977  -0.1395230   0.0999890   0.2836346  -0.0184775
   55  -0.0831608  -0.3359256  -0.1625763  -0.4619316  -0.1960969  -0.2006041
   56   0.0964257   0.1322184  -0.2968342  -0.1086101   0.1064777   0.1183568
   57  -0.0000000  -0.0000000  -0.0000000  -0.0000000  -0.0000000  -0.0000000
   58  -0.2750687  -0.0095021  -0.2678399  -0.2550749   0.0968654   0.0994211
   59   0.3913662   0.4464453   0.2472921   0.3399876   0.0211621   0.1321303
   60   0.4877690   0.3037020  -0.1835016  -0.2081830  -0.1281908   0.1132110
           55          56          57          58          59          60
    1   0.0738057  -0.0092735   0.0029934  -0.0046751  -0.0001518   0.0617745
    2  -0.4991332   0.0396276  -0.0127750   0.0326595   0.0026691  -0.4733361
    3  -0.0837958   0.4521460  -0.2109006  -0.1253334   0.1272318   0.6407803
    4   0.3167666   0.1318514   0.2041453   0.4609228  -0.7266787   0.1426137
    5  -0.0000000  -0.0000000  -0.0000000  -0.0000000   0.0000000   0.0000000
    6   0.0105236  -0.0190547  -0.0191415   0.0409164  -0.0122419  -0.0615567
    7  -0.0887054   0.1346126   0.1389136  -0.3067473   0.0936127   0.4572552
    8  -0.0426299  -0.1955849  -0.4779718  -0.1342616   0.5352772  -0.2058471
    9  -0.1626881  -0.2133499   0.0462938   0.1244976  -0.2609765  -0.6193416
   10   0.0000000  -0.0000000  -0.0000000  -0.0000000   0.0000000   0.0000000
   11   0.0586484   0.0231865   0.0190767   0.0256682   0.0129772   0.0611627
   12  -0.4008599  -0.1555960  -0.1380989  -0.1949457  -0.0978246  -0.4554597
   13   0.1938071  -0.0635453  -0.4817914   0.1843828   0.3867534  -0.4359743
   14   0.2813827  -0.2948904  -0.0793090   0.1377850   0.4716322   0.5072240
   15  -0.0000000  -0.0000000  -0.0000000  -0.0000000  -0.0000000  -0.0000000
   16  -0.0738057  -0.0092735   0.0029934   0.0046751  -0.0001518  -0.0617745
   17   0.4991332   0.0396276  -0.0127750  -0.0326595   0.0026691   0.4733361
   18  -0.0837958  -0.4521460   0.2109006  -0.1253334  -0.1272318   0.6407803
   19   0.3167666  -0.1318514  -0.2041453   0.4609228   0.7266787   0.1426137
   20   0.0000000   0.0000000   0.0000000  -0.0000000  -0.0000000   0.0000000
   21  -0.0105236  -0.0190547  -0.0191415  -0.0409164  -0.0122419   0.0615567
   22   0.0887054   0.1346126   0.1389136   0.3067473   0.0936127  -0.4572552
   23  -0.0426299   0.1955849   0.4779718  -0.1342616  -0.5352772  -0.2058471
   24  -0.1626881   0.2133499  -0.0462938   0.1244976   0.2609765  -0.6193416
   25   0.0000000   0.0000000   0.0000000   0.0000000  -0.0000000   0.0000000
   26  -0.0586484   0.0231865   0.0190767  -0.0256682   0.0129772  -0.0611627
   27   0.4008599  -0.1555960  -0.1380989   0.1949457  -0.0978246   0.4554597
   28   0.1938071   0.0635453   0.4817914   0.1843828  -0.3867534  -0.4359743
   29   0.2813827   0.2948904   0.0793090   0.1377850  -0.4716322   0.5072240
   30   0.0000000   0.0000000   0.0000000   0.0000000   0.0000000  -0.0000000
   31   0.1204284   0.1522512   0.0175898   0.0505634   0.0185199   0.2599656
   32   0.1502054   0.2363604  -0.1634738   0.0586088  -0.0385835  -0.2845233
   33  -0.1204284   0.1522512   0.0175898  -0.0505634   0.0185199  -0.2599656
   34  -0.1502054   0.2363604  -0.1634738  -0.0586088  -0.0385835   0.2845233
   35  -0.0413017   0.0201162   0.0616667   0.0651538   0.0317812  -0.0128878
   36   0.3155425  -0.1242462  -0.4795687  -0.5075242  -0.2571739   0.0782679
   37  -0.5149221  -0.3675521   0.5263885   0.4160010   0.2527808   0.2517171
   38  -0.2039577  -0.4620196  -0.3740770  -0.6623140  -0.4511530   0.0353694
   39  -0.0000000  -0.0000000   0.0000000   0.0000000   0.0000000  -0.0000000
   40   0.0221146  -0.0198829  -0.0591453  -0.0716785  -0.0401754  -0.0014276
   41  -0.1627912   0.1434724   0.4541387   0.5597146   0.3253841   0.0201600
   42   0.1455206   0.4489738   0.3816725   0.5419093   0.3123973  -0.0304047
   43   0.5982201   0.3496492  -0.5425917  -0.4371778  -0.2639267  -0.1587977
   44  -0.0000000  -0.0000000  -0.0000000  -0.0000000   0.0000000   0.0000000
   45  -0.3374246  -0.3428511   0.0011245  -0.1926758  -0.1628284   0.0403030
   46   0.2639666   0.3242105   0.0237474   0.1101126   0.0591204  -0.0452868
   47  -0.4128922  -0.4200430   0.1613230   0.0096062   0.0286062   0.1314344
   48   0.0413017   0.0201162   0.0616667  -0.0651538   0.0317812   0.0128878
   49  -0.3155425  -0.1242462  -0.4795687   0.5075242  -0.2571739  -0.0782679
   50  -0.5149221   0.3675521  -0.5263885   0.4160010  -0.2527808   0.2517171
   51  -0.2039577   0.4620196   0.3740770  -0.6623140   0.4511530   0.0353694
   52  -0.0000000  -0.0000000  -0.0000000   0.0000000  -0.0000000  -0.0000000
   53  -0.0221146  -0.0198829  -0.0591453   0.0716785  -0.0401754   0.0014276
   54   0.1627912   0.1434724   0.4541387  -0.5597146   0.3253841  -0.0201600
   55   0.1455206  -0.4489738  -0.3816725   0.5419093  -0.3123973  -0.0304047
   56   0.5982201  -0.3496492   0.5425917  -0.4371778   0.2639267  -0.1587977
   57  -0.0000000  -0.0000000  -0.0000000  -0.0000000   0.0000000  -0.0000000
   58   0.3374246  -0.3428511   0.0011245   0.1926758  -0.1628284  -0.0403030
   59  -0.2639666   0.3242105   0.0237474  -0.1101126   0.0591204   0.0452868
   60   0.4128922  -0.4200430   0.1613230  -0.0096062   0.0286062  -0.1314344
 Final Alpha Density Matrix
            1           2           3           4           5           6
    1   1.0333429  -0.1026417  -0.0004201  -0.0001078  -0.0000000   0.0129288
    2  -0.1026417   0.4186483   0.0150666   0.0034739   0.0000000  -0.0338215
    3  -0.0004201   0.0150666   0.3024821   0.0001527  -0.0000000   0.0376953
    4  -0.0001078   0.0034739   0.0001527   0.3026797   0.0000000  -0.0435339
    5  -0.0000000   0.0000000  -0.0000000   0.0000000   0.3840319   0.0000000
    6   0.0129288  -0.0338215   0.0376953  -0.0435339   0.0000000   1.0334712
    7  -0.0341362   0.0455754  -0.0938920   0.1082668   0.0000000  -0.1009944
    8  -0.0389936   0.0958074  -0.0928990   0.1241047   0.0000000  -0.0010188
    9   0.0432898  -0.1107281   0.1194552  -0.1268591  -0.0000000  -0.0023077
   10  -0.0000000   0.0000000   0.0000000   0.0000000   0.2388208   0.0000000
   11  -0.0023847   0.0071312  -0.0103426   0.0044660  -0.0000000   0.0127047
   12   0.0072468  -0.0163579   0.0398087  -0.0121790   0.0000000  -0.0331551
   13   0.0118842  -0.0417075   0.0414111  -0.0228263   0.0000000  -0.0568697
   14  -0.0031078   0.0163424  -0.0022388   0.0122585  -0.0000000  -0.0110785
   15  -0.0000000   0.0000000   0.0000000   0.0000000  -0.0304323  -0.0000000
   16  -0.0022439   0.0077544  -0.0065902  -0.0014831   0.0000000  -0.0024338
   17   0.0077544  -0.0263129   0.0245517   0.0057067  -0.0000000   0.0073176
   18   0.0065902  -0.0245517   0.0211799   0.0095067   0.0000000   0.0075810
   19   0.0014831  -0.0057067   0.0095067  -0.0272676  -0.0000000   0.0081643
   20  -0.0000000  -0.0000000   0.0000000  -0.0000000  -0.1572840  -0.0000000
   21  -0.0024338   0.0073176  -0.0075810  -0.0081643   0.0000000  -0.0021989
   22   0.0074489  -0.0171028   0.0310939   0.0268440  -0.0000000   0.0075233
   23   0.0099356  -0.0328519   0.0270670   0.0295519  -0.0000000   0.0019247
   24   0.0073814  -0.0306684   0.0086511   0.0251801  -0.0000000   0.0060422
   25   0.0000000  -0.0000000  -0.0000000  -0.0000000  -0.0294072  -0.0000000
   26   0.0130311  -0.0341220   0.0172589   0.0548124  -0.0000000  -0.0026131
   27  -0.0344904   0.0465240  -0.0425283  -0.1361934   0.0000000   0.0083753
   28  -0.0193399   0.0464531  -0.0083057  -0.0743076  -0.0000000  -0.0012223
   29  -0.0543244   0.1354456  -0.0738045  -0.2101982  -0.0000000   0.0120791
   30  -0.0000000  -0.0000000  -0.0000000  -0.0000000   0.2395278  -0.0000000
   31   0.0135089  -0.0513433   0.0158538  -0.0623212  -0.0000000  -0.0569737
   32  -0.0093049   0.0351612  -0.0330586   0.0357468   0.0000000   0.0137036
   33  -0.0091499   0.0342654  -0.0172257  -0.0462164  -0.0000000  -0.0010888
   34   0.0131857  -0.0495864  -0.0089371   0.0631293  -0.0000000  -0.0091045
   35   0.0000495  -0.0001178   0.0005281  -0.0002077  -0.0000000   0.0015303
   36   0.0002219  -0.0009760  -0.0004264   0.0011115   0.0000000  -0.0059270
   37  -0.0011105   0.0045713  -0.0046923  -0.0015132   0.0000000  -0.0072933
   38  -0.0006831   0.0029507  -0.0018905  -0.0014969  -0.0000000  -0.0027450
   39   0.0000000   0.0000000   0.0000000   0.0000000   0.0064679   0.0000000
   40  -0.0002360   0.0009590  -0.0008799   0.0005205   0.0000000   0.0004914
   41   0.0008949  -0.0034784   0.0035550  -0.0022860  -0.0000000  -0.0018836
   42   0.0005432  -0.0026808   0.0015831  -0.0003253   0.0000000  -0.0008969
   43   0.0011981  -0.0048926   0.0039883  -0.0046591  -0.0000000  -0.0019097
   44  -0.0000000   0.0000000   0.0000000   0.0000000   0.0731616   0.0000000
   45   0.0006535  -0.0032819   0.0020025  -0.0027095  -0.0000000   0.0033325
   46  -0.0009752   0.0042534  -0.0032132   0.0008510   0.0000000  -0.0000958
   47   0.0007243  -0.0037417   0.0010766  -0.0001838   0.0000000   0.0000917
   48   0.0097454  -0.0272139  -0.0494956  -0.0105444   0.0000000  -0.0028223
   49  -0.0273469   0.0488185   0.1415312   0.0293154   0.0000000   0.0110349
   50   0.0496981  -0.1437048  -0.2315781  -0.0470197  -0.0000000  -0.0111745
   51   0.0118279  -0.0395622  -0.0554246  -0.0088864   0.0000000   0.0044694
   52   0.0000000   0.0000000   0.0000000   0.0000000   0.0814845  -0.0000000
   53  -0.0024300   0.0086198   0.0114472  -0.0023065  -0.0000000   0.0015492
   54   0.0069843  -0.0215988  -0.0371376   0.0118837   0.0000000  -0.0054306
   55  -0.0110863   0.0461845   0.0461467  -0.0008567   0.0000000   0.0049341
   56   0.0015046  -0.0023667  -0.0169979   0.0055467   0.0000000  -0.0045081
   57   0.0000000   0.0000000   0.0000000   0.0000000  -0.0326705  -0.0000000
   58   0.0137149  -0.0558740  -0.0590966  -0.0355759  -0.0000000   0.0058514
   59  -0.0111965   0.0469336   0.0592296   0.0064705  -0.0000000   0.0030401
   60   0.0081489  -0.0339689  -0.0413549  -0.0015128   0.0000000  -0.0006040
            7           8           9          10          11          12
    1  -0.0341362  -0.0389936   0.0432898  -0.0000000  -0.0023847   0.0072468
    2   0.0455754   0.0958074  -0.1107281   0.0000000   0.0071312  -0.0163579
    3  -0.0938920  -0.0928990   0.1194552   0.0000000  -0.0103426   0.0398087
    4   0.1082668   0.1241047  -0.1268591   0.0000000   0.0044660  -0.0121790
    5   0.0000000   0.0000000  -0.0000000   0.2388208  -0.0000000   0.0000000
    6  -0.1009944  -0.0010188  -0.0023077   0.0000000   0.0127047  -0.0331551
    7   0.4086935   0.0056247   0.0147457  -0.0000000  -0.0331725   0.0430021
    8   0.0056247   0.3030821   0.0041841  -0.0000000   0.0567528  -0.1421859
    9   0.0147457   0.0041841   0.3098517   0.0000000   0.0120740  -0.0336950
   10  -0.0000000  -0.0000000   0.0000000   0.3981729  -0.0000000  -0.0000000
   11  -0.0331725   0.0567528   0.0120740  -0.0000000   1.0334348  -0.1007635
   12   0.0430021  -0.1421859  -0.0336950  -0.0000000  -0.1007635   0.4077511
   13   0.1438419  -0.2237438  -0.0446327   0.0000000   0.0018314  -0.0108533
   14   0.0245443  -0.0503541  -0.0006004  -0.0000000  -0.0018906   0.0121279
   15  -0.0000000  -0.0000000   0.0000000   0.2596821   0.0000000  -0.0000000
   16   0.0074489  -0.0099356  -0.0073814   0.0000000   0.0130311  -0.0344904
   17  -0.0171028   0.0328519   0.0306684   0.0000000  -0.0341220   0.0465240
   18  -0.0310939   0.0270670   0.0086511   0.0000000  -0.0172589   0.0425283
   19  -0.0268440   0.0295519   0.0251801  -0.0000000  -0.0548124   0.1361934
   20   0.0000000   0.0000000   0.0000000  -0.0294072  -0.0000000   0.0000000
   21   0.0075233  -0.0019247  -0.0060422   0.0000000  -0.0026131   0.0083753
   22  -0.0252617   0.0068702   0.0222487  -0.0000000   0.0083777  -0.0219467
   23  -0.0068702  -0.0209525   0.0149080  -0.0000000  -0.0036244   0.0096622
   24  -0.0222487   0.0149080   0.0157181  -0.0000000   0.0115656  -0.0442058
   25   0.0000000   0.0000000   0.0000000  -0.1625441  -0.0000000   0.0000000
   26   0.0083777   0.0036244  -0.0115656  -0.0000000  -0.0021868   0.0074712
   27  -0.0219467  -0.0096622   0.0442058   0.0000000   0.0074712  -0.0250453
   28   0.0085717   0.0073827   0.0034916   0.0000000  -0.0041276   0.0149617
   29  -0.0446371  -0.0194820   0.0449657  -0.0000000   0.0048706  -0.0180552
   30   0.0000000   0.0000000   0.0000000  -0.0263025  -0.0000000   0.0000000
   31   0.1454623   0.0873735   0.2599128   0.0000000   0.0137510  -0.0509220
   32  -0.0507669   0.0597419  -0.0182622   0.0000000  -0.0571882   0.1458548
   33   0.0037761  -0.0020125  -0.0031123  -0.0000000  -0.0090817   0.0342424
   34   0.0343645   0.0303898  -0.0377192  -0.0000000  -0.0010656   0.0037100
   35  -0.0055851   0.0075996   0.0019283  -0.0000000  -0.0025176   0.0085091
   36   0.0203537  -0.0315982  -0.0082147   0.0000000   0.0090164  -0.0273580
   37   0.0286704  -0.0372624  -0.0080749  -0.0000000   0.0096091  -0.0350303
   38   0.0118346  -0.0117924  -0.0009093  -0.0000000   0.0068466  -0.0276791
   39  -0.0000000  -0.0000000   0.0000000  -0.0222695   0.0000000  -0.0000000
   40  -0.0016718   0.0019527   0.0003038   0.0000000  -0.0018222   0.0062151
   41   0.0061643  -0.0080827  -0.0009586  -0.0000000   0.0060332  -0.0205066
   42   0.0028272  -0.0026416  -0.0022013   0.0000000   0.0048488  -0.0185451
   43   0.0076457  -0.0103861   0.0004355   0.0000000   0.0036868  -0.0149003
   44  -0.0000000  -0.0000000   0.0000000   0.0049131  -0.0000000  -0.0000000
   45  -0.0136346   0.0152539   0.0046508  -0.0000000  -0.0074503   0.0282231
   46   0.0008283  -0.0012855   0.0000805   0.0000000  -0.0022188   0.0084734
   47   0.0000513   0.0032309  -0.0013455   0.0000000   0.0036853  -0.0127587
   48   0.0099997   0.0115941  -0.0014688   0.0000000   0.0016607  -0.0061594
   49  -0.0360755  -0.0496695   0.0048408  -0.0000000  -0.0067218   0.0236454
   50   0.0417680   0.0439009  -0.0246523   0.0000000   0.0074701  -0.0297610
   51  -0.0201394  -0.0055152  -0.0054467   0.0000000  -0.0000995   0.0012049
   52  -0.0000000  -0.0000000   0.0000000  -0.0206786   0.0000000  -0.0000000
   53  -0.0058502  -0.0050428   0.0028684  -0.0000000  -0.0006684   0.0027058
   54   0.0187749   0.0198604  -0.0097278   0.0000000   0.0025010  -0.0095177
   55  -0.0202344  -0.0140682   0.0123312  -0.0000000  -0.0021921   0.0097954
   56   0.0175843   0.0168865  -0.0085750   0.0000000   0.0015794  -0.0060912
   57  -0.0000000  -0.0000000   0.0000000  -0.0920060   0.0000000  -0.0000000
   58  -0.0218329  -0.0173292   0.0066164  -0.0000000  -0.0006319   0.0015047
   59  -0.0120906  -0.0119116   0.0121024  -0.0000000  -0.0020946   0.0088180
   60   0.0008982   0.0043414  -0.0071640   0.0000000   0.0008800  -0.0034935
           13          14          15          16          17          18
    1   0.0118842  -0.0031078  -0.0000000  -0.0022439   0.0077544   0.0065902
    2  -0.0417075   0.0163424   0.0000000   0.0077544  -0.0263129  -0.0245517
    3   0.0414111  -0.0022388   0.0000000  -0.0065902   0.0245517   0.0211799
    4  -0.0228263   0.0122585   0.0000000  -0.0014831   0.0057067   0.0095067
    5   0.0000000  -0.0000000  -0.0304323   0.0000000  -0.0000000   0.0000000
    6  -0.0568697  -0.0110785  -0.0000000  -0.0024338   0.0073176   0.0075810
    7   0.1438419   0.0245443  -0.0000000   0.0074489  -0.0171028  -0.0310939
    8  -0.2237438  -0.0503541  -0.0000000  -0.0099356   0.0328519   0.0270670
    9  -0.0446327  -0.0006004   0.0000000  -0.0073814   0.0306684   0.0086511
   10   0.0000000  -0.0000000   0.2596821   0.0000000   0.0000000   0.0000000
   11   0.0018314  -0.0018906   0.0000000   0.0130311  -0.0341220  -0.0172589
   12  -0.0108533   0.0121279  -0.0000000  -0.0344904   0.0465240   0.0425283
   13   0.3066625  -0.0063628   0.0000000   0.0193399  -0.0464531  -0.0083057
   14  -0.0063628   0.3084577  -0.0000000   0.0543244  -0.1354456  -0.0738045
   15   0.0000000  -0.0000000   0.3972330   0.0000000  -0.0000000   0.0000000
   16   0.0193399   0.0543244   0.0000000   1.0333429  -0.1026417   0.0004201
   17  -0.0464531  -0.1354456  -0.0000000  -0.1026417   0.4186483  -0.0150666
   18  -0.0083057  -0.0738045   0.0000000   0.0004201  -0.0150666   0.3024821
   19  -0.0743076  -0.2101982  -0.0000000   0.0001078  -0.0034739   0.0001527
   20   0.0000000  -0.0000000   0.2395278   0.0000000  -0.0000000   0.0000000
   21   0.0012223  -0.0120791  -0.0000000   0.0129288  -0.0338215  -0.0376953
   22  -0.0085717   0.0446371  -0.0000000  -0.0341362   0.0455754   0.0938920
   23   0.0073827  -0.0194820  -0.0000000   0.0389936  -0.0958074  -0.0928990
   24   0.0034916   0.0449657  -0.0000000  -0.0432898   0.1107281   0.1194552
   25  -0.0000000  -0.0000000  -0.0263025   0.0000000  -0.0000000   0.0000000
   26   0.0041276  -0.0048706  -0.0000000  -0.0023847   0.0071312   0.0103426
   27  -0.0149617   0.0180552   0.0000000   0.0072468  -0.0163579  -0.0398087
   28  -0.0043285  -0.0238683  -0.0000000  -0.0118842   0.0417075   0.0414111
   29  -0.0238683  -0.0008211   0.0000000   0.0031078  -0.0163424  -0.0022388
   30  -0.0000000  -0.0000000  -0.1660116   0.0000000  -0.0000000   0.0000000
   31  -0.0475698  -0.0411903  -0.0000000  -0.0091499   0.0342654   0.0172257
   32  -0.1820707   0.2049124   0.0000000   0.0131857  -0.0495864   0.0089371
   33  -0.0130725  -0.0471369  -0.0000000   0.0135089  -0.0513433  -0.0158538
   34   0.0030221  -0.0022168  -0.0000000  -0.0093049   0.0351612   0.0330586
   35  -0.0088992  -0.0072074  -0.0000000   0.0097454  -0.0272139   0.0494956
   36   0.0371499   0.0257558   0.0000000  -0.0273469   0.0488185  -0.1415312
   37   0.0303134   0.0345760  -0.0000000  -0.0496981   0.1437048  -0.2315781
   38   0.0116048   0.0210770  -0.0000000  -0.0118279   0.0395622  -0.0554246
   39   0.0000000  -0.0000000  -0.0218801  -0.0000000   0.0000000  -0.0000000
   40  -0.0059531   0.0008359   0.0000000  -0.0024300   0.0086198  -0.0114472
   41   0.0227418  -0.0031693  -0.0000000   0.0069843  -0.0215988   0.0371376
   42   0.0140157   0.0004947   0.0000000   0.0110863  -0.0461845   0.0461467
   43   0.0189877  -0.0258216   0.0000000  -0.0015046   0.0023667  -0.0169979
   44   0.0000000   0.0000000  -0.0874388  -0.0000000   0.0000000  -0.0000000
   45  -0.0140506  -0.0385199  -0.0000000   0.0137149  -0.0558740   0.0590966
   46  -0.0090775   0.0124414   0.0000000  -0.0111965   0.0469336  -0.0592296
   47   0.0069525  -0.0187671  -0.0000000   0.0081489  -0.0339689   0.0413549
   48  -0.0082690  -0.0014446   0.0000000   0.0000495  -0.0001178  -0.0005281
   49   0.0356751   0.0059283  -0.0000000   0.0002219  -0.0009760   0.0004264
   50  -0.0374422  -0.0070028   0.0000000   0.0011105  -0.0045713  -0.0046923
   51  -0.0022217   0.0014815   0.0000000   0.0006831  -0.0029507  -0.0018905
[...]
     15 H                    -8.091197
     16 C                    20.340493
     17 C                    13.484870
     18 H                    -9.927267
     19 H                   -22.339587
     20 H                    -9.245802
  ----------------------------------------
  Sum of atomic charges =     0.000000


              Partial Lowdin         Populations for Occupied RHF Orbitals

                         1         2         3         4         5         6
                        1Bu       1Ag       2Bu       2Ag       3Bu       3Ag  
   1    C 1   s     0.99487   0.99468   0.00233   0.00238   0.00143   0.00042
   2    C 1   p     0.00000   0.00000   0.00015   0.00015   0.00033   0.00054
   3    C 2   s     0.00090   0.00098   0.00040   0.00082   0.90471   0.87740
   4    C 2   p     0.00045   0.00042   0.00000   0.00000   0.00004   0.00005
   5    C 3   s     0.00078   0.00085   0.00018   0.00019   0.09238   0.12056
   6    C 3   p     0.00045   0.00042   0.00000   0.00000   0.00042   0.00035
   7    C 4   s     0.99487   0.99468   0.00233   0.00238   0.00143   0.00042
   8    C 4   p     0.00000   0.00000   0.00015   0.00015   0.00033   0.00054
   9    C 5   s     0.00090   0.00098   0.00040   0.00082   0.90471   0.87740
  10    C 5   p     0.00045   0.00042   0.00000   0.00000   0.00004   0.00005
  11    C 6   s     0.00078   0.00085   0.00018   0.00019   0.09238   0.12056
  12    C 6   p     0.00045   0.00042   0.00000   0.00000   0.00042   0.00035
  13    H 1   s     0.00000   0.00000   0.00000   0.00000   0.00021   0.00020
  14    H 2   s     0.00000   0.00000   0.00000   0.00000   0.00002   0.00002
  15    H 3   s     0.00000   0.00000   0.00000   0.00000   0.00021   0.00020
  16    H 4   s     0.00000   0.00000   0.00000   0.00000   0.00002   0.00002
  17    C 7   s     0.00241   0.00251   0.99584   0.99535   0.00046   0.00045
  18    C 7   p     0.00014   0.00014   0.00000   0.00000   0.00000   0.00000
  19    C 8   s     0.00000   0.00000   0.00016   0.00016   0.00000   0.00000
  20    C 8   p     0.00000   0.00000   0.00071   0.00071   0.00000   0.00000
  21    H 5   s     0.00000   0.00000   0.00023   0.00023   0.00000   0.00000
  22    H 6   s     0.00000   0.00000   0.00000   0.00000   0.00000   0.00000
  23    H 7   s     0.00000   0.00000   0.00000   0.00000   0.00000   0.00000
  24    C 9   s     0.00241   0.00251   0.99584   0.99535   0.00046   0.00045
  25    C 9   p     0.00014   0.00014   0.00000   0.00000   0.00000   0.00000
  26    C 10  s     0.00000   0.00000   0.00016   0.00016   0.00000   0.00000
  27    C 10  p     0.00000   0.00000   0.00071   0.00071   0.00000   0.00000
  28    H 8   s     0.00000   0.00000   0.00023   0.00023   0.00000   0.00000
  29    H 9   s     0.00000   0.00000   0.00000   0.00000   0.00000   0.00000
  30    H 10  s     0.00000   0.00000   0.00000   0.00000   0.00000   0.00000
                         7         8         9        10        11        12
                        4Bu       4Ag       5Bu       5Ag       6Ag       6Bu  
   1    C 1   s     0.00031   0.00156   0.00000   0.00000   0.28776   0.23608
   2    C 1   p     0.00058   0.00026   0.00000   0.00000   0.02109   0.00984
   3    C 2   s     0.09285   0.11975   0.00000   0.00000   0.24075   0.02919
   4    C 2   p     0.00043   0.00034   0.00000   0.00000   0.03431   0.03864
   5    C 3   s     0.90551   0.87736   0.00000   0.00000   0.24321   0.05274
   6    C 3   p     0.00005   0.00004   0.00000   0.00000   0.03371   0.03710
   7    C 4   s     0.00031   0.00156   0.00000   0.00000   0.28776   0.23608
   8    C 4   p     0.00058   0.00026   0.00000   0.00000   0.02109   0.00984
   9    C 5   s     0.09285   0.11975   0.00000   0.00000   0.24075   0.02919
  10    C 5   p     0.00043   0.00034   0.00000   0.00000   0.03431   0.03864
  11    C 6   s     0.90551   0.87736   0.00000   0.00000   0.24321   0.05274
  12    C 6   p     0.00005   0.00004   0.00000   0.00000   0.03371   0.03710
  13    H 1   s     0.00003   0.00003   0.00000   0.00000   0.02408   0.00591
  14    H 2   s     0.00022   0.00021   0.00000   0.00000   0.02529   0.01284
  15    H 3   s     0.00003   0.00003   0.00000   0.00000   0.02408   0.00591
  16    H 4   s     0.00022   0.00021   0.00000   0.00000   0.02529   0.01284
  17    C 7   s     0.00003   0.00044   0.00016   0.00016   0.05133   0.28315
  18    C 7   p     0.00000   0.00000   0.00071   0.00071   0.00972   0.01319
  19    C 8   s     0.00000   0.00001   0.99865   0.99865   0.01352   0.16005
  20    C 8   p     0.00000   0.00000   0.00000   0.00000   0.00482   0.03138
  21    H 5   s     0.00000   0.00000   0.00000   0.00000   0.00657   0.04224
  22    H 6   s     0.00000   0.00000   0.00023   0.00023   0.00117   0.02046
  23    H 7   s     0.00000   0.00000   0.00023   0.00023   0.00268   0.02720
  24    C 9   s     0.00003   0.00044   0.00016   0.00016   0.05133   0.28315
  25    C 9   p     0.00000   0.00000   0.00071   0.00071   0.00972   0.01319
  26    C 10  s     0.00000   0.00001   0.99866   0.99865   0.01352   0.16005
  27    C 10  p     0.00000   0.00000   0.00000   0.00000   0.00482   0.03138
  28    H 8   s     0.00000   0.00000   0.00000   0.00000   0.00657   0.04224
  29    H 9   s     0.00000   0.00000   0.00023   0.00023   0.00117   0.02046
  30    H 10  s     0.00000   0.00000   0.00023   0.00023   0.00268   0.02720
                        13        14        15        16        17        18
                        7Ag       7Bu       8Bu       8Ag       9Ag       9Bu  
   1    C 1   s     0.00071   0.00745   0.19794   0.06749   0.06730   0.00098
   2    C 1   p     0.06610   0.12635   0.02220   0.13376   0.16201   0.07531
   3    C 2   s     0.03644   0.37630   0.03066   0.00814   0.19261   0.03511
   4    C 2   p     0.00987   0.01724   0.06979   0.15071   0.04298   0.00008
   5    C 3   s     0.02427   0.27888   0.11788   0.13379   0.02995   0.00956
   6    C 3   p     0.01771   0.04237   0.03505   0.02117   0.19845   0.02905
   7    C 4   s     0.00071   0.00745   0.19794   0.06749   0.06730   0.00098
   8    C 4   p     0.06610   0.12635   0.02220   0.13376   0.16201   0.07531
   9    C 5   s     0.03644   0.37630   0.03066   0.00814   0.19261   0.03511
  10    C 5   p     0.00987   0.01724   0.06979   0.15071   0.04298   0.00008
  11    C 6   s     0.02427   0.27888   0.11788   0.13379   0.02995   0.00956
  12    C 6   p     0.01771   0.04237   0.03505   0.02117   0.19845   0.02905
  13    H 1   s     0.00369   0.07831   0.00651   0.00909   0.12648   0.00820
  14    H 2   s     0.00057   0.05973   0.01975   0.08051   0.01573   0.01431
  15    H 3   s     0.00369   0.07831   0.00651   0.00909   0.12648   0.00820
  16    H 4   s     0.00057   0.05973   0.01975   0.08051   0.01573   0.01431
  17    C 7   s     0.30421   0.00028   0.05666   0.05780   0.00420   0.17048
  18    C 7   p     0.04083   0.00626   0.10510   0.09799   0.04868   0.08129
  19    C 8   s     0.30872   0.00294   0.22723   0.08534   0.04796   0.11323
  20    C 8   p     0.03710   0.00031   0.00881   0.01994   0.01882   0.12515
  21    H 5   s     0.04954   0.00113   0.01081   0.04462   0.00079   0.14251
  22    H 6   s     0.05004   0.00044   0.05418   0.03557   0.03635   0.07184
  23    H 7   s     0.05019   0.00201   0.03744   0.05408   0.00769   0.12291
  24    C 9   s     0.30421   0.00028   0.05666   0.05780   0.00420   0.17048
  25    C 9   p     0.04083   0.00626   0.10510   0.09799   0.04868   0.08129
  26    C 10  s     0.30872   0.00294   0.22723   0.08534   0.04796   0.11323
  27    C 10  p     0.03710   0.00031   0.00881   0.01994   0.01882   0.12515
  28    H 8   s     0.04954   0.00113   0.01081   0.04462   0.00079   0.14251
  29    H 9   s     0.05004   0.00044   0.05418   0.03557   0.03635   0.07184
  30    H 10  s     0.05019   0.00201   0.03744   0.05408   0.00769   0.12291
                        19        20        21        22        23        24
                       10Ag      11Ag      10Bu      11Bu      12Bu      12Ag  
   1    C 1   s     0.03162   0.02331   0.00213   0.08024   0.00078   0.00545
   2    C 1   p     0.08169   0.07270   0.12782   0.01215   0.21905   0.00092
   3    C 2   s     0.00298   0.00562   0.00279   0.03191   0.00387   0.00880
   4    C 2   p     0.17550   0.15111   0.13767   0.16829   0.09604   0.01192
   5    C 3   s     0.05210   0.00451   0.01928   0.02791   0.01676   0.00801
   6    C 3   p     0.17513   0.09565   0.08924   0.19803   0.15290   0.05000
   7    C 4   s     0.03162   0.02331   0.00213   0.08024   0.00078   0.00545
   8    C 4   p     0.08169   0.07270   0.12782   0.01215   0.21905   0.00092
   9    C 5   s     0.00298   0.00562   0.00279   0.03191   0.00387   0.00880
  10    C 5   p     0.17550   0.15111   0.13767   0.16829   0.09604   0.01192
  11    C 6   s     0.05210   0.00451   0.01928   0.02791   0.01676   0.00801
  12    C 6   p     0.17513   0.09565   0.08924   0.19803   0.15290   0.05000
  13    H 1   s     0.04423   0.06152   0.01531   0.17855   0.04020   0.00082
  14    H 2   s     0.11112   0.02989   0.00354   0.21236   0.01616   0.03343
  15    H 3   s     0.04423   0.06152   0.01531   0.17855   0.04020   0.00082
  16    H 4   s     0.11112   0.02989   0.00354   0.21236   0.01616   0.03343
  17    C 7   s     0.05519   0.02663   0.00390   0.00096   0.00076   0.00379
  18    C 7   p     0.02292   0.17126   0.18895   0.00890   0.12294   0.25849
  19    C 8   s     0.05374   0.00475   0.00422   0.00349   0.00031   0.00004
  20    C 8   p     0.05880   0.16854   0.20946   0.03416   0.19497   0.35375
  21    H 5   s     0.05414   0.07717   0.06720   0.00830   0.00001   0.08912
  22    H 6   s     0.04792   0.00112   0.12249   0.03037   0.01433   0.17521
  23    H 7   s     0.03291   0.10622   0.00600   0.00439   0.12092   0.00026
  24    C 9   s     0.05519   0.02663   0.00390   0.00096   0.00076   0.00379
  25    C 9   p     0.02292   0.17126   0.18895   0.00890   0.12294   0.25849
  26    C 10  s     0.05374   0.00475   0.00422   0.00349   0.00031   0.00004
  27    C 10  p     0.05880   0.16854   0.20946   0.03416   0.19497   0.35375
  28    H 8   s     0.05414   0.07717   0.06720   0.00830   0.00001   0.08912
  29    H 9   s     0.04792   0.00112   0.12249   0.03037   0.01433   0.17521
  30    H 10  s     0.03291   0.10622   0.00600   0.00439   0.12092   0.00026
                        25        26        27        28        29        30
                       13Bu      14Bu      13Ag       1Au      15Bu      14Ag  
   1    C 1   s     0.00010   0.00045   0.01119   0.00000   0.00397   0.00004
   2    C 1   p     0.05081   0.12308   0.02330   0.34384   0.21097   0.23496
   3    C 2   s     0.01254   0.00324   0.00060   0.00000   0.00115   0.00018
   4    C 2   p     0.30065   0.16092   0.09611   0.27791   0.01107   0.21483
   5    C 3   s     0.00025   0.00078   0.00004   0.00000   0.00225   0.00011
   6    C 3   p     0.23375   0.13359   0.06811   0.27821   0.05077   0.19015
   7    C 4   s     0.00010   0.00045   0.01119   0.00000   0.00397   0.00004
   8    C 4   p     0.05081   0.12308   0.02330   0.34384   0.21097   0.23496
   9    C 5   s     0.01254   0.00324   0.00060   0.00000   0.00115   0.00018
  10    C 5   p     0.30065   0.16092   0.09611   0.27791   0.01107   0.21483
  11    C 6   s     0.00025   0.00078   0.00004   0.00000   0.00225   0.00011
  12    C 6   p     0.23375   0.13359   0.06811   0.27821   0.05077   0.19015
  13    H 1   s     0.13164   0.00585   0.06033   0.00000   0.00198   0.08240
  14    H 2   s     0.11958   0.00535   0.00007   0.00000   0.00792   0.17964
  15    H 3   s     0.13164   0.00585   0.06033   0.00000   0.00198   0.08240
  16    H 4   s     0.11958   0.00535   0.00007   0.00000   0.00792   0.17964
  17    C 7   s     0.00002   0.00077   0.00841   0.00000   0.00025   0.00181
  18    C 7   p     0.05448   0.22162   0.09920   0.07695   0.19644   0.03711
  19    C 8   s     0.00106   0.00294   0.00019   0.00000   0.00005   0.00012
  20    C 8   p     0.06616   0.19139   0.28167   0.02309   0.16554   0.04027
  21    H 5   s     0.00029   0.08953   0.08549   0.00000   0.11601   0.01139
  22    H 6   s     0.00033   0.04156   0.07529   0.00000   0.12210   0.00150
  23    H 7   s     0.02834   0.01892   0.19000   0.00000   0.10951   0.00549
  24    C 9   s     0.00002   0.00077   0.00841   0.00000   0.00025   0.00181
  25    C 9   p     0.05448   0.22162   0.09920   0.07695   0.19644   0.03711
  26    C 10  s     0.00106   0.00294   0.00019   0.00000   0.00005   0.00012
  27    C 10  p     0.06616   0.19139   0.28167   0.02309   0.16554   0.04027
  28    H 8   s     0.00029   0.08953   0.08549   0.00000   0.11601   0.01139
  29    H 9   s     0.00033   0.04156   0.07529   0.00000   0.12210   0.00150
  30    H 10  s     0.02834   0.01892   0.19000   0.00000   0.10951   0.00549
                        31        32        33        34        35
                       15Ag       1Bg       2Au       2Bg       3Bg  
   1    C 1   s     0.00389   0.00000   0.00000   0.00000   0.00000
   2    C 1   p     0.20158   0.31476   0.00088   0.00072   0.33193
   3    C 2   s     0.00013   0.00000   0.00000   0.00000   0.00000
   4    C 2   p     0.13196   0.04606   0.06590   0.51930   0.09466
   5    C 3   s     0.00008   0.00000   0.00000   0.00000   0.00000
   6    C 3   p     0.17033   0.05324   0.06080   0.47956   0.12942
   7    C 4   s     0.00389   0.00000   0.00000   0.00000   0.00000
   8    C 4   p     0.20158   0.31476   0.00088   0.00072   0.33193
   9    C 5   s     0.00013   0.00000   0.00000   0.00000   0.00000
  10    C 5   p     0.13196   0.04606   0.06590   0.51930   0.09466
  11    C 6   s     0.00008   0.00000   0.00000   0.00000   0.00000
  12    C 6   p     0.17033   0.05324   0.06080   0.47956   0.12942
  13    H 1   s     0.07139   0.00000   0.00000   0.00000   0.00000
  14    H 2   s     0.00661   0.00000   0.00000   0.00000   0.00000
  15    H 3   s     0.07139   0.00000   0.00000   0.00000   0.00000
  16    H 4   s     0.00661   0.00000   0.00000   0.00000   0.00000
  17    C 7   s     0.00975   0.00000   0.00000   0.00000   0.00000
  18    C 7   p     0.21827   0.37314   0.42789   0.00000   0.11606
  19    C 8   s     0.00001   0.00000   0.00000   0.00000   0.00000
  20    C 8   p     0.04539   0.21280   0.44453   0.00042   0.32793
  21    H 5   s     0.05977   0.00000   0.00000   0.00000   0.00000
  22    H 6   s     0.05279   0.00000   0.00000   0.00000   0.00000
  23    H 7   s     0.02807   0.00000   0.00000   0.00000   0.00000
  24    C 9   s     0.00975   0.00000   0.00000   0.00000   0.00000
  25    C 9   p     0.21827   0.37314   0.42789   0.00000   0.11606
  26    C 10  s     0.00001   0.00000   0.00000   0.00000   0.00000
  27    C 10  p     0.04539   0.21280   0.44453   0.00042   0.32793
  28    H 8   s     0.05977   0.00000   0.00000   0.00000   0.00000
  29    H 9   s     0.05279   0.00000   0.00000   0.00000   0.00000
  30    H 10  s     0.02807   0.00000   0.00000   0.00000   0.00000

Performing Hirshfeld population analysis.
Hirshfeld: reading atomic densities from disk.
Hirshfeld: performing integration.
warning:  vdwdata pointer should have been initialzed before dftman
Hirshfeld: integration completed in 0.84 sec.

          Hirshfeld Atomic Charges         

     Atom                 Charge (a.u.)    
  ---------------------------------------- 
      1 C                     0.002908
      2 C                    -0.026984
      3 C                    -0.026611
      4 C                     0.002908
      5 C                    -0.026984
      6 C                    -0.026611
      7 H                     0.024927
      8 H                     0.026138
      9 H                     0.024927
     10 H                     0.026138
     11 C                    -0.022291
     12 C                    -0.055293
     13 H                     0.025340
     14 H                     0.025673
     15 H                     0.025895
     16 C                    -0.022291
     17 C                    -0.055293
     18 H                     0.025340
     19 H                     0.025673
     20 H                     0.025895
  ---------------------------------------- 
  Sum of atomic charges =    -0.000597


          Charge Model 5         

     Atom                 Charge (a.u.)    
  ---------------------------------------- 
      1 C                    -0.007760
      2 C                    -0.078132
      3 C                    -0.077979
      4 C                    -0.007760
      5 C                    -0.078132
      6 C                    -0.077979
      7 H                     0.079451
      8 H                     0.081709
      9 H                     0.079451
     10 H                     0.081709
     11 C                    -0.078006
     12 C                    -0.153670
     13 H                     0.079671
     14 H                     0.076277
     15 H                     0.078140
     16 C                    -0.078006
     17 C                    -0.153670
     18 H                     0.079671
     19 H                     0.076277
     20 H                     0.078140
  ---------------------------------------- 
  Sum of atomic charges =    -0.000597

  Building new vdw surfaces
         Merz-Kollman ESP Net Atomic Charges

     Atom                 Charge (a.u.)
  ----------------------------------------
      1 C                     0.196206
      2 C                    -0.226170
      3 C                    -0.115646
      4 C                     0.196206
      5 C                    -0.226170
      6 C                    -0.115646
      7 H                     0.109846
      8 H                     0.104482
      9 H                     0.109846
     10 H                     0.104482
     11 C                    -0.127918
     12 C                    -0.269761
     13 H                     0.100407
     14 H                     0.118518
     15 H                     0.110036
     16 C                    -0.127918
     17 C                    -0.269761
     18 H                     0.100407
     19 H                     0.118518
     20 H                     0.110036
  ----------------------------------------
  Sum of atomic charges =     0.000000

  Related Dipole Moment =     0.0000 (X -0.0000 Y  0.0000 Z -0.0000)

 -----------------------------------------------------------------
                    Cartesian Multipole Moments
 -----------------------------------------------------------------
    Charge (ESU x 10^10)
                 0.0000
    Dipole Moment (Debye)
         X      -0.0000      Y       0.0000      Z       0.0000
       Tot       0.0000
    Quadrupole Moments (Debye-Ang)
        XX     -50.9653     XY      -0.1101     YY     -50.1438
        XZ       0.0000     YZ      -0.0000     ZZ     -58.5742
    Octopole Moments (Debye-Ang^2)
       XXX      -0.0000    XXY       0.0000    XYY      -0.0000
       YYY       0.0000    XXZ       0.0000    XYZ       0.0000
       YYZ       0.0000    XZZ      -0.0000    YZZ       0.0000
       ZZZ       0.0000
    Hexadecapole Moments (Debye-Ang^3)
      XXXX   -1811.1780   XXXY       0.5006   XXYY    -358.4279
      XYYY       3.4707   YYYY    -329.5839   XXXZ       0.0000
      XXYZ      -0.0000   XYYZ      -0.0000   YYYZ       0.0000
      XXZZ    -356.7122   XYZZ      -0.0669   YYZZ     -72.1348
      XZZZ      -0.0000   YZZZ       0.0000   ZZZZ     -47.5456
 -----------------------------------------------------------------
 Total job time:  4.29s(wall), 4.12s(cpu) 
 Thu Sep 22 23:33:23 2022

        *************************************************************
        *                                                           *
        *  Thank you very much for using Q-Chem.  Have a nice day.  *
        *                                                           *
        *************************************************************


