                  Welcome to Q-Chem
     A Quantum Leap Into The Future Of Chemistry


 Q-Chem 5.4 (devel), Q-Chem, Inc., Pleasanton, CA (2021)

 E. Epifanovsky,  A. T. B. Gilbert,  Xintian Feng,  Joonho Lee,  Yuezhi Mao,  
 N. Mardirossian,  P. Pokhilko,  A. White,  M. Wormit,  M. P. Coons,  
 A. L. Dempwolff,  Zhengting Gan,  D. Hait,  P. R. Horn,  L. D. Jacobson,  
 I. Kaliman,  J. Kussmann,  A. W. Lange,  Ka Un Lao,  D. S. Levine,  Jie Liu,  
 S. C. McKenzie,  A. F. Morrison,  K. Nanda,  F. Plasser,  D. R. Rehn,  
 M. L. Vidal,  Zhi-Qiang You,  Ying Zhu,  B. Alam,  B. Albrecht,  
 A. Aldossary,  E. Alguire,  J. H. Andersen,  D. Barton,  K. Begam,  A. Behn,  
 Y. A. Bernard,  E. J. Berquist,  H. Burton,  A. Carreras,  K. Carter-Fenk,  
 R. Chakraborty,  A. D. Chien,  K. D. Closser,  V. Cofer-Shabica,  
 S. Dasgupta,  Jia Deng,  M. de Wergifosse,  M. Diedenhofen,  Hainam Do,  
 S. Ehlert,  Po-Tung Fang,  S. Fatehi,  Qingguo Feng,  T. Friedhoff,  
 J. Gayvert,  Qinghui Ge,  G. Gidofalvi,  M. Goldey,  J. Gomes,  
 C. Gonzalez-Espinoza,  S. Gulania,  A. Gunina,  M. W. D. Hanson-Heine,  
 P. H. P. Harbach,  A. W. Hauser,  M. F. Herbst,  M. Hernandez Vera,  
 M. Hodecker,  Z. C. Holden,  S. Houck,  Xunkun Huang,  Kerwin Hui,  
 B. C. Huynh,  M. Ivanov,  Hyunjun Ji,  Hanjie Jiang,  B. Kaduk,  S. Kaehler,  
 K. Khistyaev,  Jaehoon Kim,  P. Klunzinger,  Z. Koczor-Benda,  
 Joong Hoon Koh,  D. Kosenkov,  L. Koulias,  T. Kowalczyk,  C. M. Krauter,  
 K. Kue,  A. Kunitsa,  T. Kus,  A. Landau,  K. V. Lawler,  D. Lefrancois,  
 S. Lehtola,  Rain Li,  Yi-Pei Li,  Jiashu Liang,  M. Liebenthal,  
 Hung-Hsuan Lin,  You-Sheng Lin,  Fenglai Liu,  Kuan-Yu Liu,  
 M. Loipersberger,  A. Luenser,  A. Manjanath,  P. Manohar,  E. Mansoor,  
 S. F. Manzer,  Shan-Ping Mao,  A. V. Marenich,  T. Markovich,  S. Mason,  
 S. A. Maurer,  P. F. McLaughlin,  M. F. S. J. Menger,  J.-M. Mewes,  
 S. A. Mewes,  P. Morgante,  J. W. Mullinax,  K. J. Oosterbaan,  G. Paran,  
 Alexander C. Paul,  Suranjan K. Paul,  F. Pavosevic,  Zheng Pei,  S. Prager,  
 E. I. Proynov,  E. Ramos,  B. Rana,  A. E. Rask,  A. Rettig,  R. M. Richard,  
 F. Rob,  E. Rossomme,  T. Scheele,  M. Scheurer,  M. Schneider,  
 N. Sergueev,  S. M. Sharada,  W. Skomorowski,  D. W. Small,  C. J. Stein,  
 Yu-Chuan Su,  E. J. Sundstrom,  Zhen Tao,  J. Thirman,  T. Tsuchimochi,  
 N. M. Tubman,  S. P. Veccham,  O. Vydrov,  J. Wenzel,  J. Witte,  A. Yamada,  
 Kun Yao,  S. Yeganeh,  S. R. Yost,  A. Zech,  Igor Ying Zhang,  Xing Zhang,  
 Yu Zhang,  D. Zuev,  A. Aspuru-Guzik,  A. T. Bell,  N. A. Besley,  
 K. B. Bravaya,  B. R. Brooks,  D. Casanova,  Jeng-Da Chai,  S. Coriani,  
 C. J. Cramer,  A. E. DePrince, III,  R. A. DiStasio Jr.,  A. Dreuw,  
 B. D. Dunietz,  T. R. Furlani,  W. A. Goddard III,  S. Grimme,  
 S. Hammes-Schiffer,  T. Head-Gordon,  W. J. Hehre,  Chao-Ping Hsu,  
 T.-C. Jagau,  Yousung Jung,  A. Klamt,  Jing Kong,  D. S. Lambrecht,  
 WanZhen Liang,  N. J. Mayhall,  C. W. McCurdy,  J. B. Neaton,  
 C. Ochsenfeld,  J. A. Parkhill,  R. Peverati,  V. A. Rassolov,  Yihan Shao,  
 L. V. Slipchenko,  T. Stauch,  R. P. Steele,  J. E. Subotnik,  
 A. J. W. Thom,  A. Tkatchenko,  D. G. Truhlar,  T. Van Voorhis,  
 T. A. Wesolowski,  K. B. Whaley,  H. L. Woodcock III,  P. M. Zimmerman,  
 S. Faraji,  P. M. W. Gill,  M. Head-Gordon,  J. M. Herbert,  A. I. Krylov

 Additional authors for Version 5.4.1: 
 S. Kotaru,  Shaozhi Li,  Xiangyuan Li,  F. Matz,  A. Molle,  Haisheng Ren,  
 Yingli Su,  Hung-Yi Tsai,  C. Utku,  Fang Wang

 Contributors to earlier versions of Q-Chem not listed above: 
 R. D. Adamson,  B. Austin,  R. Baer,  J. Baker,  G. J. O. Beran,  
 K. Brandhorst,  S. T. Brown,  E. F. C. Byrd,  A. K. Chakraborty,  
 G. K. L. Chan,  Chun-Min Chang,  Yunqing Chen,  C.-L. Cheng,  
 Siu Hung Chien,  D. M. Chipman,  D. L. Crittenden,  H. Dachsel,  
 R. J. Doerksen,  A. D. Dutoi,  R. G. Edgar,  J. Fosso-Tande,  
 L. Fusti-Molnar,  D. Ghosh,  A. Ghysels,  A. Golubeva-Zadorozhnaya,  
 J. Gonthier,  M. S. Gordon,  S. R. Gwaltney,  G. Hawkins,  J. E. Herr,  
 A. Heyden,  S. Hirata,  E. G. Hohenstein,  G. Kedziora,  F. J. Keil,  
 C. Kelley,  Jihan Kim,  R. A. King,  R. Z. Khaliullin,  P. P. Korambath,  
 W. Kurlancheek,  A. Laurent,  A. M. Lee,  M. S. Lee,  S. V. Levchenko,  
 Ching Yeh Lin,  D. Liotard,  E. Livshits,  R. C. Lochan,  I. Lotan,  
 L. A. Martinez-Martinez,  P. E. Maslen,  N. Nair,  D. P. O'Neill,  
 D. Neuhauser,  E. Neuscamman,  C. M. Oana,  R. Olivares-Amaya,  R. Olson,  
 T. M. Perrine,  B. Peters,  P. A. Pieniazek,  A. Prociuk,  Y. M. Rhee,  
 J. Ritchie,  M. A. Rohrdanz,  E. Rosta,  N. J. Russ,  H. F. Schaefer III,  
 M. W. Schmidt,  N. E. Schultz,  S. Sharma,  N. Shenvi,  C. D. Sherrill,  
 A. C. Simmonett,  A. Sodt,  T. Stein,  D. Stuck,  K. S. Thanthiriwatte,  
 V. Vanovschi,  L. Vogt,  Tao Wang,  A. Warshel,  M. A. Watson,  
 C. F. Williams,  Q. Wu,  X. Xu,  Jun Yang,  W. Zhang,  Yan Zhao

 Please cite Q-Chem as follows:
 Y. Shao et al., Mol. Phys. 113, 184-215 (2015)
 DOI: 10.1080/00268976.2014.952696

 Q-Chem 5.4.1 for Intel X86 EM64T Linux

 Parts of Q-Chem use Armadillo 9.900.5 (Nocturnal Misbehaviour).
 http://arma.sourceforge.net/

Compilation information
-----------------------

 SVN revision             | 37731
 SVN branch               | trunk
 Last SVN revision        | 37729
 Last SVN author          | epif
 Hostname                 | osmium
 User                     | eric
 System                   | Linux-5.14.3-arch1-1
 Processor                | x86_64
 Compiler                 | GNU
 C compiler version       | 10.3.0
 CXX compiler version     | 10.3.0
 Fortran compiler version | 10.3.0
 Configuration time       | 2021-09-18 20:48:41


 Q-Chem begins on Sun Sep 19 10:14:57 2021  

 Host: osmium
0

     Scratch files written to /tmp/qchem/qchem2851251//
 Processing $rem in /home/eric/data/opt/apps/qchem/archive/r37729-g10.3.0-openblas/config/preferences:
 Processing $rem in /home/eric/.qchemrc:

 Checking the input file for inconsistencies... 	...done.

--------------------------------------------------------------
User input:
--------------------------------------------------------------
$comment
 Divinylbenzene cation, single point, UB3LYP/STO-3G
$end

$rem
 method = b3lyp
 basis = sto-3g
 unrestricted = true
 scf_final_print = 2
 print_general_basis = true
 print_orbitals = true
 molden_format = false
 gui = 2
$end

$molecule
 +1 2
 C                  0.27867948   -1.36683162    0.00000000
 C                  1.32303041   -0.44173575    0.00000000
 C                  1.04434506    0.92484978    0.00000000
 C                 -0.27867948    1.36683162    0.00000000
 C                 -1.32303041    0.44173575    0.00000000
 C                 -1.04434506   -0.92484978    0.00000000
 H                  2.36595443   -0.79037726    0.00000000
 H                  1.86746094    1.65407997    0.00000000
 H                 -2.36595443    0.79037726    0.00000000
 H                 -1.86746094   -1.65407997    0.00000000
 C                 -0.58659169    2.87589931    0.00000000
 C                  0.36350188    3.80076420    0.00000000
 H                 -1.65647768    3.12394312    0.00000000
 H                  0.14429560    4.87693235    0.00000000
 H                  1.43338788    3.55272039    0.00000000
 C                  0.58659169   -2.87589931    0.00000000
 C                 -0.36350188   -3.80076420    0.00000000
 H                  1.65647768   -3.12394312    0.00000000
 H                 -0.14429560   -4.87693235    0.00000000
 H                 -1.43338788   -3.55272039    0.00000000
$end
--------------------------------------------------------------
 ----------------------------------------------------------------
             Standard Nuclear Orientation (Angstroms)
    I     Atom           X                Y                Z
 ----------------------------------------------------------------
    1      C       1.3668132833     0.2787694006    -0.0000000000
    2      C       0.4416487095     1.3230594681    -0.0000000000
    3      C      -0.9249184834     1.0442842137    -0.0000000000
    4      C      -1.3668132833    -0.2787694006     0.0000000000
    5      C      -0.4416487095    -1.3230594681     0.0000000000
    6      C       0.9249184834    -1.0442842137     0.0000000000
    7      H       0.7902216068     2.3660064222    -0.0000000000
    8      H      -1.6542028230     1.8673521173    -0.0000000000
    9      H      -0.7902216068    -2.3660064222     0.0000000000
   10      H       1.6542028230    -1.8673521173     0.0000000000
   11      C      -2.8758607131    -0.5867808885     0.0000000000
   12      C      -3.8007881058     0.3632518344    -0.0000000000
   13      H      -3.1238341368    -1.6566831945     0.0000000000
   14      H      -4.8769418324     0.1439747559    -0.0000000000
   15      H      -3.5528146821     1.4331541504    -0.0000000000
   16      C       2.8758607131     0.5867808885    -0.0000000000
   17      C       3.8007881058    -0.3632518344     0.0000000000
   18      H       3.1238341368     1.6566831945    -0.0000000000
   19      H       4.8769418324    -0.1439747559     0.0000000000
   20      H       3.5528146821    -1.4331541504     0.0000000000
 ----------------------------------------------------------------
 Molecular Point Group                 C2h   NOp =  4
 Largest Abelian Subgroup              C2h   NOp =  4
 Nuclear Repulsion Energy =         450.00613820 hartrees
 There are       35 alpha and       34 beta electrons
 Requested basis set is STO-3G
 Basis set in general basis input format:
-----------------------------------------------------------------------
$basis
C    0
S    3    1.000000
   7.16168370E+01    1.54328970E-01 
   1.30450960E+01    5.35328140E-01 
   3.53051220E+00    4.44634540E-01 
SP   3    1.000000
   2.94124940E+00   -9.99672300E-02   1.55916270E-01 
   6.83483100E-01    3.99512830E-01   6.07683720E-01 
   2.22289900E-01    7.00115470E-01   3.91957390E-01 
****
C    0
S    3    1.000000
   7.16168370E+01    1.54328970E-01 
   1.30450960E+01    5.35328140E-01 
   3.53051220E+00    4.44634540E-01 
SP   3    1.000000
   2.94124940E+00   -9.99672300E-02   1.55916270E-01 
   6.83483100E-01    3.99512830E-01   6.07683720E-01 
   2.22289900E-01    7.00115470E-01   3.91957390E-01 
****
C    0
S    3    1.000000
   7.16168370E+01    1.54328970E-01 
   1.30450960E+01    5.35328140E-01 
   3.53051220E+00    4.44634540E-01 
SP   3    1.000000
   2.94124940E+00   -9.99672300E-02   1.55916270E-01 
   6.83483100E-01    3.99512830E-01   6.07683720E-01 
   2.22289900E-01    7.00115470E-01   3.91957390E-01 
****
C    0
S    3    1.000000
   7.16168370E+01    1.54328970E-01 
   1.30450960E+01    5.35328140E-01 
   3.53051220E+00    4.44634540E-01 
SP   3    1.000000
   2.94124940E+00   -9.99672300E-02   1.55916270E-01 
   6.83483100E-01    3.99512830E-01   6.07683720E-01 
   2.22289900E-01    7.00115470E-01   3.91957390E-01 
****
C    0
S    3    1.000000
   7.16168370E+01    1.54328970E-01 
   1.30450960E+01    5.35328140E-01 
   3.53051220E+00    4.44634540E-01 
SP   3    1.000000
   2.94124940E+00   -9.99672300E-02   1.55916270E-01 
   6.83483100E-01    3.99512830E-01   6.07683720E-01 
   2.22289900E-01    7.00115470E-01   3.91957390E-01 
****
C    0
S    3    1.000000
   7.16168370E+01    1.54328970E-01 
   1.30450960E+01    5.35328140E-01 
   3.53051220E+00    4.44634540E-01 
SP   3    1.000000
   2.94124940E+00   -9.99672300E-02   1.55916270E-01 
   6.83483100E-01    3.99512830E-01   6.07683720E-01 
   2.22289900E-01    7.00115470E-01   3.91957390E-01 
****
H    0
S    3    1.000000
   3.42525091E+00    1.54328970E-01 
   6.23913730E-01    5.35328140E-01 
   1.68855400E-01    4.44634540E-01 
****
H    0
S    3    1.000000
   3.42525091E+00    1.54328970E-01 
   6.23913730E-01    5.35328140E-01 
   1.68855400E-01    4.44634540E-01 
****
H    0
S    3    1.000000
   3.42525091E+00    1.54328970E-01 
   6.23913730E-01    5.35328140E-01 
   1.68855400E-01    4.44634540E-01 
****
H    0
S    3    1.000000
   3.42525091E+00    1.54328970E-01 
   6.23913730E-01    5.35328140E-01 
   1.68855400E-01    4.44634540E-01 
****
C    0
S    3    1.000000
   7.16168370E+01    1.54328970E-01 
   1.30450960E+01    5.35328140E-01 
   3.53051220E+00    4.44634540E-01 
SP   3    1.000000
   2.94124940E+00   -9.99672300E-02   1.55916270E-01 
   6.83483100E-01    3.99512830E-01   6.07683720E-01 
   2.22289900E-01    7.00115470E-01   3.91957390E-01 
****
C    0
S    3    1.000000
   7.16168370E+01    1.54328970E-01 
   1.30450960E+01    5.35328140E-01 
   3.53051220E+00    4.44634540E-01 
SP   3    1.000000
   2.94124940E+00   -9.99672300E-02   1.55916270E-01 
   6.83483100E-01    3.99512830E-01   6.07683720E-01 
   2.22289900E-01    7.00115470E-01   3.91957390E-01 
****
H    0
S    3    1.000000
   3.42525091E+00    1.54328970E-01 
   6.23913730E-01    5.35328140E-01 
   1.68855400E-01    4.44634540E-01 
****
H    0
S    3    1.000000
   3.42525091E+00    1.54328970E-01 
   6.23913730E-01    5.35328140E-01 
   1.68855400E-01    4.44634540E-01 
****
H    0
S    3    1.000000
   3.42525091E+00    1.54328970E-01 
   6.23913730E-01    5.35328140E-01 
   1.68855400E-01    4.44634540E-01 
****
C    0
S    3    1.000000
   7.16168370E+01    1.54328970E-01 
   1.30450960E+01    5.35328140E-01 
   3.53051220E+00    4.44634540E-01 
SP   3    1.000000
   2.94124940E+00   -9.99672300E-02   1.55916270E-01 
   6.83483100E-01    3.99512830E-01   6.07683720E-01 
   2.22289900E-01    7.00115470E-01   3.91957390E-01 
****
C    0
S    3    1.000000
   7.16168370E+01    1.54328970E-01 
   1.30450960E+01    5.35328140E-01 
   3.53051220E+00    4.44634540E-01 
SP   3    1.000000
   2.94124940E+00   -9.99672300E-02   1.55916270E-01 
   6.83483100E-01    3.99512830E-01   6.07683720E-01 
   2.22289900E-01    7.00115470E-01   3.91957390E-01 
****
H    0
S    3    1.000000
   3.42525091E+00    1.54328970E-01 
   6.23913730E-01    5.35328140E-01 
   1.68855400E-01    4.44634540E-01 
****
H    0
S    3    1.000000
   3.42525091E+00    1.54328970E-01 
   6.23913730E-01    5.35328140E-01 
   1.68855400E-01    4.44634540E-01 
****
H    0
S    3    1.000000
   3.42525091E+00    1.54328970E-01 
   6.23913730E-01    5.35328140E-01 
   1.68855400E-01    4.44634540E-01 
****
$end
-----------------------------------------------------------------------
 There are 30 shells and 60 basis functions

 Total QAlloc Memory Limit   2000 MB
 Mega-Array Size       188 MB
 MEM_STATIC part       192 MB
 A cutoff of  1.0D-08 yielded    367 shell pairs
 There are      1648 function pairs
 Smallest overlap matrix eigenvalue = 1.71E-01

 Scale SEOQF with 1.000000e-01/1.000000e-01/1.000000e+00

 Standard Electronic Orientation quadrupole field applied
 Nucleus-field energy     =     0.0000000194 hartrees
 Guess from superposition of atomic densities
 Warning:  Energy on first SCF cycle will be non-variational
 SAD guess density has 70.000000 electrons

 -----------------------------------------------------------------------
  General SCF calculation program by
  Eric Jon Sundstrom, Paul Horn, Yuezhi Mao, Dmitri Zuev, Alec White,
  David Stuck, Shaama M.S., Shane Yost, Joonho Lee, David Small,
  Daniel Levine, Susi Lehtola, Hugh Burton, Evgeny Epifanovsky,
  Bang C. Huynh
 -----------------------------------------------------------------------
 Exchange:     0.2000 Hartree-Fock + 0.0800 Slater + 0.7200 B88
 Correlation:  0.1900 VWN1RPA + 0.8100 LYP
 Using SG-1 standard quadrature grid
 A unrestricted SCF calculation will be
 performed using DIIS
 SCF converges when DIIS error is below 1.0e-05
 ---------------------------------------
  Cycle       Energy         DIIS error
 ---------------------------------------
    1    -381.9238083015      6.93e-02  
    2    -382.0391590259      3.01e-03  
    3    -382.0387071835      3.19e-03  
    4    -382.0628892208      9.27e-04  
    5    -382.0650298519      2.25e-04  
    6    -382.0651976900      1.38e-04  
    7    -382.0652697457      4.67e-05  
    8    -382.0653008587      3.81e-05  
    9    -382.0653084381      5.64e-06  Convergence criterion met
 ---------------------------------------
 Alpha HF Exchange    Energy =  -5.54158744552537
 Beta HF Exchange     Energy =  -5.43615310953430
 DFT Correlation      Energy =  -2.93469671347693
 DFT Exchange         Energy = -43.49249880362024
 One-Electron (alpha) Energy = -705.16981651586127
 One-Electron (beta)  Energy = -689.36083496039282
 Total Coulomb        Energy = 619.86414089525942
 Final Alpha MO Eigenvalues
            1           2           3           4           5           6
    1 -10.2540425 -10.2539736 -10.2221294 -10.2220724 -10.2197850 -10.2197013
            7           8           9          10          11          12
    1 -10.2192505 -10.2192472 -10.2143219 -10.2143218  -1.0326412  -0.9653695
           13          14          15          16          17          18
    1  -0.9257680  -0.9064647  -0.8816952  -0.7852141  -0.7636807  -0.7225086
           19          20          21          22          23          24
    1  -0.7071095  -0.6566360  -0.6371553  -0.6033529  -0.5999486  -0.5896896
           25          26          27          28          29          30
    1  -0.5730865  -0.5584558  -0.5421885  -0.5396015  -0.4981979  -0.4970765
           31          32          33          34          35          36
    1  -0.4787947  -0.4754207  -0.4223548  -0.3994717  -0.3774554  -0.1665691
           37          38          39          40          41          42
    1  -0.1137017  -0.0896574  -0.0321274   0.0652130   0.1228818   0.1311231
           43          44          45          46          47          48
    1   0.1681471   0.1831319   0.2224507   0.2246113   0.2360601   0.2474984
           49          50          51          52          53          54
    1   0.2770688   0.3003526   0.3272784   0.3663417   0.3861555   0.4052199
           55          56          57          58          59          60
    1   0.4259049   0.4455880   0.4842572   0.5307164   0.5921829   0.5997254
 Final Beta MO Eigenvalues
            1           2           3           4           5           6
    1 -10.2510551 -10.2509914 -10.2216439 -10.2215915 -10.2197583 -10.2197562
            7           8           9          10          11          12
    1 -10.2196521 -10.2195619 -10.2103557 -10.2103557  -1.0262308  -0.9573485
           13          14          15          16          17          18
    1  -0.9177196  -0.9045673  -0.8698815  -0.7809641  -0.7589029  -0.7188749
           19          20          21          22          23          24
    1  -0.7040041  -0.6543948  -0.6348223  -0.6006019  -0.5974975  -0.5870138
           25          26          27          28          29          30
    1  -0.5719958  -0.5559875  -0.5375672  -0.5250752  -0.4963759  -0.4950237
           31          32          33          34          35          36
    1  -0.4777476  -0.4511984  -0.3956567  -0.3928105  -0.3098911  -0.1386168
           37          38          39          40          41          42
    1  -0.1049652  -0.0694382  -0.0102343   0.0819352   0.1255049   0.1338546
           43          44          45          46          47          48
    1   0.1698623   0.1856847   0.2271212   0.2288938   0.2373438   0.2533621
           49          50          51          52          53          54
    1   0.2836556   0.3047843   0.3325036   0.3695864   0.3875780   0.4081718
           55          56          57          58          59          60
    1   0.4300792   0.4482131   0.4882416   0.5360183   0.5960297   0.6033482
 Final Alpha MO Coefficients
            1           2           3           4           5           6
    1  -0.7002409   0.7002709  -0.0086031   0.0070908   0.0060862   0.0085203
    2  -0.0315693   0.0313511   0.0075956  -0.0051447  -0.0057767  -0.0068145
    3   0.0015307  -0.0011803  -0.0019991   0.0009933   0.0029004   0.0034286
    4   0.0003321  -0.0002608  -0.0037393   0.0047761  -0.0037704  -0.0026451
    5   0.0000000   0.0000000  -0.0000000  -0.0000000   0.0000000   0.0000000
    6   0.0062881  -0.0069509  -0.0930975  -0.1070381   0.6941628   0.6910879
    7   0.0074681  -0.0067992  -0.0110599  -0.0112622   0.0302573   0.0298357
    8   0.0027612  -0.0030106   0.0043694   0.0043427   0.0001731   0.0003613
    9  -0.0035504   0.0034335   0.0012589   0.0011554  -0.0012995  -0.0009553
   10   0.0000000  -0.0000000  -0.0000000  -0.0000000  -0.0000000   0.0000000
   11  -0.0067620  -0.0074776   0.6940285   0.6920348   0.0941098   0.1074870
   12  -0.0074991  -0.0068416   0.0321376   0.0319167  -0.0026550  -0.0016800
   13   0.0011559   0.0014251   0.0015030   0.0013519  -0.0042662  -0.0042273
   14   0.0043530   0.0043420  -0.0010571  -0.0007603  -0.0008617  -0.0009201
   15  -0.0000000  -0.0000000   0.0000000   0.0000000  -0.0000000  -0.0000000
   16   0.7002409   0.7002709   0.0086031   0.0070908  -0.0060862   0.0085203
   17   0.0315693   0.0313511  -0.0075956  -0.0051447   0.0057767  -0.0068145
   18   0.0015307   0.0011803  -0.0019991  -0.0009933   0.0029004  -0.0034286
   19   0.0003321   0.0002608  -0.0037393  -0.0047761  -0.0037704   0.0026451
   20  -0.0000000  -0.0000000   0.0000000   0.0000000  -0.0000000  -0.0000000
   21  -0.0062881  -0.0069509   0.0930975  -0.1070381  -0.6941628   0.6910879
   22  -0.0074681  -0.0067992   0.0110599  -0.0112622  -0.0302573   0.0298357
   23   0.0027612   0.0030106   0.0043694  -0.0043427   0.0001731  -0.0003613
   24  -0.0035504  -0.0034335   0.0012589  -0.0011554  -0.0012995   0.0009553
   25  -0.0000000  -0.0000000   0.0000000   0.0000000  -0.0000000   0.0000000
   26   0.0067620  -0.0074776  -0.6940285   0.6920348  -0.0941098   0.1074870
   27   0.0074991  -0.0068416  -0.0321376   0.0319167   0.0026550  -0.0016800
   28   0.0011559  -0.0014251   0.0015030  -0.0013519  -0.0042662   0.0042273
   29   0.0043530  -0.0043420  -0.0010571   0.0007603  -0.0008617   0.0009201
   30   0.0000000   0.0000000  -0.0000000  -0.0000000   0.0000000  -0.0000000
   31  -0.0002231   0.0000837   0.0010065   0.0010117  -0.0061285  -0.0062146
   32   0.0002385   0.0000985  -0.0062220  -0.0062863  -0.0006580  -0.0009149
   33   0.0002231   0.0000837  -0.0010065   0.0010117   0.0061285  -0.0062146
   34  -0.0002385   0.0000985   0.0062220  -0.0062863   0.0006580  -0.0009149
   35  -0.0097161  -0.0098765  -0.0020725  -0.0051191   0.0048394  -0.0407474
   36  -0.0055050  -0.0055856   0.0001623  -0.0001193   0.0000258  -0.0016584
   37  -0.0038177  -0.0038728   0.0000797  -0.0000371  -0.0000501   0.0000337
   38  -0.0008494  -0.0008606   0.0000192   0.0000594  -0.0000353  -0.0000947
   39  -0.0000000   0.0000000  -0.0000000  -0.0000000   0.0000000   0.0000000
   40  -0.0001082  -0.0001033  -0.0024083  -0.0021891   0.0001050  -0.0010769
   41   0.0002860   0.0002864  -0.0001955  -0.0001561   0.0000050   0.0003141
   42   0.0001939   0.0002006  -0.0001088  -0.0000835   0.0000043   0.0000898
   43   0.0000537   0.0000529  -0.0000830  -0.0000872  -0.0000013  -0.0001990
   44   0.0000000  -0.0000000  -0.0000000  -0.0000000   0.0000000   0.0000000
   45   0.0001554   0.0001644  -0.0000354  -0.0000250  -0.0000029   0.0002931
   46  -0.0000257  -0.0000246  -0.0000151  -0.0000136  -0.0000037  -0.0000199
   47  -0.0001385  -0.0001263   0.0002607   0.0002631   0.0000099   0.0000087
   48   0.0097161  -0.0098765   0.0020725  -0.0051191  -0.0048394  -0.0407474
   49   0.0055050  -0.0055856  -0.0001623  -0.0001193  -0.0000258  -0.0016584
   50  -0.0038177   0.0038728   0.0000797   0.0000371  -0.0000501  -0.0000337
   51  -0.0008494   0.0008606   0.0000192  -0.0000594  -0.0000353   0.0000947
   52  -0.0000000   0.0000000   0.0000000   0.0000000  -0.0000000  -0.0000000
   53   0.0001082  -0.0001033   0.0024083  -0.0021891  -0.0001050  -0.0010769
   54  -0.0002860   0.0002864   0.0001955  -0.0001561  -0.0000050   0.0003141
   55   0.0001939  -0.0002006  -0.0001088   0.0000835   0.0000043  -0.0000898
   56   0.0000537  -0.0000529  -0.0000830   0.0000872  -0.0000013   0.0001990
   57  -0.0000000   0.0000000   0.0000000   0.0000000  -0.0000000  -0.0000000
   58  -0.0001554   0.0001644   0.0000354  -0.0000250   0.0000029   0.0002931
   59   0.0000257  -0.0000246   0.0000151  -0.0000136   0.0000037  -0.0000199
   60   0.0001385  -0.0001263  -0.0002607   0.0002631  -0.0000099   0.0000087
            7           8           9          10          11          12
    1   0.0108361  -0.0115094   0.0004514  -0.0004726  -0.1125230  -0.1122159
    2  -0.0047313   0.0050963   0.0000856  -0.0000763   0.2863200   0.2995134
    3  -0.0039384   0.0037175  -0.0000288   0.0000259  -0.0563721   0.0175910
    4  -0.0006628   0.0007573   0.0000357  -0.0000310  -0.0137686  -0.0087543
    5   0.0000000  -0.0000000   0.0000000   0.0000000  -0.0000000   0.0000000
    6   0.0049662  -0.0393772   0.0005713  -0.0018609  -0.0965648  -0.0386620
    7   0.0003249  -0.0016551   0.0000277   0.0000572   0.2379439   0.0994493
    8   0.0000425  -0.0001554  -0.0001104   0.0000107  -0.0112062   0.0666310
    9   0.0000417  -0.0001056   0.0000086  -0.0000364  -0.0665320  -0.0336380
   10   0.0000000  -0.0000000  -0.0000000   0.0000000  -0.0000000  -0.0000000
   11  -0.0012385  -0.0111758  -0.0024448  -0.0026838  -0.0983857   0.0536201
   12  -0.0002484  -0.0002221  -0.0000409  -0.0000126   0.2431068  -0.1385280
   13   0.0000177   0.0003470  -0.0001708  -0.0001436   0.0340637   0.0475903
   14  -0.0000182  -0.0000247  -0.0000009   0.0000046  -0.0576065   0.0577044
   15  -0.0000000  -0.0000000  -0.0000000  -0.0000000  -0.0000000   0.0000000
   16  -0.0108361  -0.0115094  -0.0004514  -0.0004726  -0.1125230   0.1122159
   17   0.0047313   0.0050963  -0.0000856  -0.0000763   0.2863200  -0.2995134
   18  -0.0039384  -0.0037175  -0.0000288  -0.0000259   0.0563721   0.0175910
   19  -0.0006628  -0.0007573   0.0000357   0.0000310   0.0137686  -0.0087543
   20  -0.0000000  -0.0000000   0.0000000   0.0000000  -0.0000000   0.0000000
   21  -0.0049662  -0.0393772  -0.0005713  -0.0018609  -0.0965648   0.0386620
   22  -0.0003249  -0.0016551  -0.0000277   0.0000572   0.2379439  -0.0994493
   23   0.0000425   0.0001554  -0.0001104  -0.0000107   0.0112062   0.0666310
   24   0.0000417   0.0001056   0.0000086   0.0000364   0.0665320  -0.0336380
   25  -0.0000000  -0.0000000  -0.0000000  -0.0000000   0.0000000  -0.0000000
   26   0.0012385  -0.0111758   0.0024448  -0.0026838  -0.0983857  -0.0536201
   27   0.0002484  -0.0002221   0.0000409  -0.0000126   0.2431068   0.1385280
   28   0.0000177  -0.0003470  -0.0001708   0.0001436  -0.0340637   0.0475903
   29  -0.0000182   0.0000247  -0.0000009  -0.0000046   0.0576065   0.0577044
   30  -0.0000000   0.0000000  -0.0000000   0.0000000   0.0000000   0.0000000
   31  -0.0000716   0.0004005  -0.0000156   0.0000307   0.0357428   0.0215579
   32   0.0001452   0.0002539  -0.0001484  -0.0001464   0.0379948  -0.0327955
   33   0.0000716   0.0004005   0.0000156   0.0000307   0.0357428  -0.0215579
   34  -0.0001452   0.0002539   0.0001484  -0.0001464   0.0379948   0.0327955
   35  -0.7001557  -0.6989683  -0.0204841  -0.0205151  -0.0403457   0.1046473
   36  -0.0308831  -0.0308219   0.0067333   0.0067323   0.1022464  -0.2697188
   37   0.0012761   0.0012899  -0.0032250  -0.0032239   0.0251059  -0.0080538
   38  -0.0013125  -0.0013073   0.0033469   0.0033463   0.0153731  -0.0468214
   39   0.0000000   0.0000000  -0.0000000  -0.0000000   0.0000000  -0.0000000
   40   0.0196496   0.0197849  -0.7002211  -0.7002174  -0.0207416   0.0779288
   41   0.0084627   0.0084609  -0.0309907  -0.0309897   0.0524026  -0.2026173
   42   0.0032882   0.0032883  -0.0011063  -0.0011057   0.0187074  -0.0540173
   43  -0.0033776  -0.0033718   0.0010614   0.0010611  -0.0111830   0.0398426
   44   0.0000000   0.0000000   0.0000000   0.0000000   0.0000000  -0.0000000
   45   0.0062894   0.0062827   0.0000402   0.0000410   0.0170458  -0.0513397
   46  -0.0003266  -0.0003262   0.0062941   0.0062941   0.0068658  -0.0334999
   47  -0.0003121  -0.0003154   0.0063448   0.0063449   0.0105228  -0.0416969
   48   0.7001557  -0.6989683   0.0204841  -0.0205151  -0.0403457  -0.1046473
   49   0.0308831  -0.0308219  -0.0067333   0.0067323   0.1022464   0.2697188
   50   0.0012761  -0.0012899  -0.0032250   0.0032239  -0.0251059  -0.0080538
   51  -0.0013125   0.0013073   0.0033469  -0.0033463  -0.0153731  -0.0468214
   52  -0.0000000   0.0000000  -0.0000000  -0.0000000   0.0000000   0.0000000
   53  -0.0196496   0.0197849   0.7002212  -0.7002172  -0.0207416  -0.0779288
   54  -0.0084627   0.0084609   0.0309908  -0.0309897   0.0524026   0.2026173
   55   0.0032882  -0.0032883  -0.0011063   0.0011057  -0.0187074  -0.0540173
   56  -0.0033776   0.0033718   0.0010614  -0.0010611   0.0111830   0.0398426
   57   0.0000000  -0.0000000  -0.0000000   0.0000000   0.0000000   0.0000000
   58  -0.0062894   0.0062827  -0.0000402   0.0000410   0.0170458   0.0513397
   59   0.0003266  -0.0003262  -0.0062941   0.0062941   0.0068658   0.0334999
   60   0.0003121  -0.0003154  -0.0063448   0.0063449   0.0105228   0.0416969
           13          14          15          16          17          18
    1   0.0051715   0.0230386  -0.0961258   0.0636054   0.0678815   0.0060541
    2  -0.0176379  -0.0634094   0.2663420  -0.1909829  -0.2051893  -0.0134510
    3  -0.0955172   0.0364914  -0.0707217  -0.0454507  -0.0913467   0.1422819
    4  -0.0057517  -0.1404727  -0.0331388  -0.1781559   0.1741575   0.0607464
    5   0.0000000   0.0000000   0.0000000  -0.0000000   0.0000000   0.0000000
    6  -0.0409253   0.1372353  -0.0321270   0.0266690  -0.1102213   0.0453036
    7   0.1052784  -0.3669738   0.0867801  -0.0771952   0.3224753  -0.1383234
    8  -0.0301799   0.0458950   0.0905573  -0.1832349  -0.0100035   0.0092747
    9  -0.0217470   0.0214933  -0.0400852   0.0230331   0.0618384   0.0136469
   10  -0.0000000   0.0000000   0.0000000   0.0000000   0.0000000   0.0000000
   11  -0.0323423   0.1158442   0.0770574  -0.0982241   0.0358743  -0.0243683
   12   0.0832817  -0.3109148  -0.2094099   0.2824111  -0.1056082   0.0744521
   13   0.0489084  -0.0711269   0.0348566  -0.0083008   0.1793909  -0.0757866
   14  -0.0043425  -0.0275899   0.0640818   0.0445365   0.1192403  -0.0391469
   15   0.0000000   0.0000000   0.0000000   0.0000000   0.0000000   0.0000000
   16   0.0051715  -0.0230386   0.0961258   0.0636054   0.0678815  -0.0060541
   17  -0.0176379   0.0634094  -0.2663420  -0.1909829  -0.2051893   0.0134510
   18   0.0955172   0.0364914  -0.0707217   0.0454507   0.0913467   0.1422819
   19   0.0057517  -0.1404727  -0.0331388   0.1781559  -0.1741575   0.0607464
   20  -0.0000000  -0.0000000  -0.0000000   0.0000000  -0.0000000  -0.0000000
   21  -0.0409253  -0.1372353   0.0321270   0.0266690  -0.1102213  -0.0453036
   22   0.1052784   0.3669738  -0.0867801  -0.0771952   0.3224753   0.1383234
   23   0.0301799   0.0458950   0.0905573   0.1832349   0.0100035   0.0092747
   24   0.0217470   0.0214933  -0.0400852  -0.0230331  -0.0618384   0.0136469
   25   0.0000000  -0.0000000  -0.0000000  -0.0000000   0.0000000  -0.0000000
   26  -0.0323423  -0.1158442  -0.0770574  -0.0982241   0.0358743   0.0243683
   27   0.0832817   0.3109148   0.2094099   0.2824111  -0.1056082  -0.0744521
   28  -0.0489084  -0.0711269   0.0348566   0.0083008  -0.1793909  -0.0757866
   29   0.0043425  -0.0275899   0.0640818  -0.0445365  -0.1192403  -0.0391469
   30  -0.0000000  -0.0000000   0.0000000  -0.0000000  -0.0000000  -0.0000000
   31   0.0172602  -0.0854209   0.0198344  -0.0421497   0.1340952  -0.0354008
   32   0.0070120  -0.0754497  -0.0455543   0.1166552  -0.0469684   0.0488665
   33   0.0172602   0.0854209  -0.0198344  -0.0421497   0.1340952   0.0354008
   34   0.0070120   0.0754497   0.0455543   0.1166552  -0.0469684  -0.0488665
   35   0.1209086  -0.0002873  -0.0673497   0.0487000   0.0138593   0.1010859
   36  -0.3150919   0.0025406   0.1765901  -0.1486186  -0.0448805  -0.3139540
   37   0.0580762   0.0212379  -0.1155457  -0.1016304  -0.1056505  -0.0518364
   38  -0.0660388  -0.0226866   0.0528810   0.0822431  -0.0149679   0.1184092
   39  -0.0000000  -0.0000000   0.0000000   0.0000000  -0.0000000   0.0000000
   40   0.1226084   0.0156289  -0.1126121  -0.0636818  -0.0577091  -0.0848992
   41  -0.3254337  -0.0413622   0.3069920   0.1864667   0.1738089   0.2675601
   42  -0.0652487  -0.0081914   0.0344325  -0.0172364  -0.0485505  -0.0810125
   43   0.0588264  -0.0005016  -0.0477835   0.0353604  -0.0085851   0.1307260
   44  -0.0000000  -0.0000000  -0.0000000   0.0000000  -0.0000000   0.0000000
   45  -0.0645778   0.0080824   0.0398536  -0.0735965   0.0079063  -0.1617091
   46  -0.0626124  -0.0079725   0.0709265   0.0605560   0.0747388   0.1149384
   47  -0.0681490  -0.0142112   0.0660749   0.0792434   0.0405921   0.1541550
   48   0.1209086   0.0002873   0.0673497   0.0487000   0.0138593  -0.1010859
   49  -0.3150919  -0.0025406  -0.1765901  -0.1486186  -0.0448805   0.3139540
   50  -0.0580762   0.0212379  -0.1155457   0.1016304   0.1056505  -0.0518364
   51   0.0660388  -0.0226866   0.0528810  -0.0822431   0.0149679   0.1184092
   52   0.0000000   0.0000000   0.0000000   0.0000000  -0.0000000   0.0000000
   53   0.1226084  -0.0156289   0.1126121  -0.0636818  -0.0577091   0.0848992
   54  -0.3254337   0.0413622  -0.3069920   0.1864667   0.1738089  -0.2675601
   55   0.0652487  -0.0081914   0.0344325   0.0172364   0.0485505  -0.0810125
   56  -0.0588264  -0.0005016  -0.0477835  -0.0353604   0.0085851   0.1307260
   57  -0.0000000   0.0000000   0.0000000  -0.0000000  -0.0000000   0.0000000
   58  -0.0645778  -0.0080824  -0.0398536  -0.0735965   0.0079063   0.1617091
   59  -0.0626124   0.0079725  -0.0709265   0.0605560   0.0747388  -0.1149384
   60  -0.0681490   0.0142112  -0.0660749   0.0792434   0.0405921  -0.1541550
           19          20          21          22          23          24
    1   0.0446907  -0.0345488  -0.0074678  -0.0468876   0.0534471   0.0151245
    2  -0.1320051   0.1167540   0.0283997   0.1602683  -0.1894387  -0.0513478
    3   0.1642854   0.1173231   0.1427139  -0.1455008  -0.0615012  -0.0042609
    4  -0.0028080   0.0662053  -0.1967851  -0.1592016  -0.1696669  -0.0061255
    5   0.0000000   0.0000000  -0.0000000  -0.0000000   0.0000000   0.0000000
    6  -0.0183637  -0.0165792   0.0090055   0.0255966  -0.0485303  -0.0245162
    7   0.0644222   0.0631312  -0.0295473  -0.0905683   0.1700913   0.0830500
    8  -0.0822731   0.1493613  -0.2317065  -0.0641764  -0.0543208  -0.0534879
    9   0.1891178   0.1256609   0.0457189  -0.0808493   0.2348663  -0.0014876
   10   0.0000000   0.0000000   0.0000000  -0.0000000   0.0000000   0.0000000
   11  -0.0519358   0.0179536  -0.0304277  -0.0134935   0.0561421   0.0215543
   12   0.1687706  -0.0485892   0.0997170   0.0545077  -0.1931929  -0.0789587
   13  -0.0414138  -0.1470123   0.1635047  -0.0877366   0.1405450   0.1121616
   14   0.1979432   0.0780089   0.1221017   0.2932243   0.0211409  -0.0251742
   15   0.0000000   0.0000000   0.0000000  -0.0000000   0.0000000   0.0000000
   16   0.0446907  -0.0345488   0.0074678   0.0468876  -0.0534471   0.0151245
   17  -0.1320051   0.1167540  -0.0283997  -0.1602683   0.1894387  -0.0513478
   18  -0.1642854  -0.1173231   0.1427139  -0.1455008  -0.0615012   0.0042609
   19   0.0028080  -0.0662053  -0.1967851  -0.1592016  -0.1696669   0.0061255
   20  -0.0000000  -0.0000000  -0.0000000  -0.0000000   0.0000000   0.0000000
   21  -0.0183637  -0.0165792  -0.0090055  -0.0255966   0.0485303  -0.0245162
   22   0.0644222   0.0631312   0.0295473   0.0905683  -0.1700913   0.0830500
   23   0.0822731  -0.1493613  -0.2317065  -0.0641764  -0.0543208   0.0534879
   24  -0.1891178  -0.1256609   0.0457189  -0.0808493   0.2348663   0.0014876
   25  -0.0000000  -0.0000000  -0.0000000  -0.0000000   0.0000000   0.0000000
   26  -0.0519358   0.0179536   0.0304277   0.0134935  -0.0561421   0.0215543
   27   0.1687706  -0.0485892  -0.0997170  -0.0545077   0.1931929  -0.0789587
   28   0.0414138   0.1470123   0.1635047  -0.0877366   0.1405450  -0.1121616
   29  -0.1979432  -0.0780089   0.1221017   0.2932243   0.0211409   0.0251742
   30  -0.0000000  -0.0000000   0.0000000  -0.0000000   0.0000000   0.0000000
   31   0.1063242   0.1177642  -0.0352525  -0.1078813   0.2244311   0.0168845
   32   0.1509523   0.0905628   0.0236701   0.2449967  -0.1276447  -0.0940108
   33   0.1063242   0.1177642   0.0352525   0.1078813  -0.2244311   0.0168845
   34   0.1509523   0.0905628  -0.0236701  -0.2449967   0.1276447  -0.0940108
   35  -0.0600013   0.0527064   0.0137796  -0.0067519   0.0064236  -0.0171798
   36   0.1859398  -0.1668565  -0.0393420   0.0248111  -0.0128017   0.0410614
   37   0.0291887   0.1766611  -0.0729713   0.1098193   0.1915800  -0.0544115
   38  -0.0663559   0.0998171  -0.1974968  -0.0059080   0.0366761   0.2931170
   39  -0.0000000  -0.0000000   0.0000000  -0.0000000   0.0000000   0.0000000
   40   0.0589810  -0.0231442  -0.0196627   0.0094294  -0.0108833   0.0008400
   41  -0.1884586   0.0858165   0.0735568  -0.0268304   0.0468816  -0.0215919
   42   0.0769543  -0.0018187  -0.2093298   0.1036477   0.0052869   0.3408037
   43  -0.0710440   0.2233958  -0.0336487   0.1637960   0.1835680  -0.0518149
   44  -0.0000000   0.0000000   0.0000000   0.0000000   0.0000000   0.0000000
   45   0.1015238  -0.1423922   0.1191798   0.0072957  -0.0716471  -0.1760979
   46  -0.0947857   0.0073107   0.1550978  -0.1011453  -0.0101203  -0.2320850
   47  -0.0839710   0.1750030  -0.0239268   0.1420587   0.1283399  -0.0039119
   48  -0.0600013   0.0527064  -0.0137796   0.0067519  -0.0064236  -0.0171798
   49   0.1859398  -0.1668565   0.0393420  -0.0248111   0.0128017   0.0410614
   50  -0.0291887  -0.1766611  -0.0729713   0.1098193   0.1915800   0.0544115
   51   0.0663559  -0.0998171  -0.1974968  -0.0059080   0.0366761  -0.2931170
   52   0.0000000   0.0000000   0.0000000  -0.0000000   0.0000000   0.0000000
   53   0.0589810  -0.0231442   0.0196627  -0.0094294   0.0108833   0.0008400
   54  -0.1884586   0.0858165  -0.0735568   0.0268304  -0.0468816  -0.0215919
   55  -0.0769543   0.0018187  -0.2093298   0.1036477   0.0052869  -0.3408037
   56   0.0710440  -0.2233958  -0.0336487   0.1637960   0.1835680   0.0518149
   57  -0.0000000   0.0000000   0.0000000  -0.0000000   0.0000000   0.0000000
   58   0.1015238  -0.1423922  -0.1191798  -0.0072957   0.0716471  -0.1760979
   59  -0.0947857   0.0073107  -0.1550978   0.1011453   0.0101203  -0.2320850
   60  -0.0839710   0.1750030   0.0239268  -0.1420587  -0.1283399  -0.0039119
           25          26          27          28          29          30
    1   0.0011016  -0.0068139   0.0000000   0.0245043  -0.0157994  -0.0015442
    2  -0.0067742   0.0262550  -0.0000000  -0.0878234   0.0691929  -0.0005110
    3  -0.1486232   0.1189839  -0.0000000   0.0107709   0.2519347  -0.1725796
    4   0.0682470  -0.1241381   0.0000000   0.1018632   0.0745738   0.2595873
    5  -0.0000000  -0.0000000  -0.3603275   0.0000000   0.0000000   0.0000000
    6  -0.0259456   0.0102057  -0.0000000   0.0053355   0.0072837  -0.0000817
    7   0.0802137  -0.0392360   0.0000000  -0.0291527  -0.0235122  -0.0076034
    8  -0.1016748  -0.2303370   0.0000000  -0.1494552   0.0115564   0.1895527
    9  -0.3141681  -0.0255888   0.0000000  -0.1571123   0.0553780  -0.2337356
   10  -0.0000000  -0.0000000  -0.2878929   0.0000000   0.0000000   0.0000000
   11  -0.0060966  -0.0116471   0.0000000  -0.0027401  -0.0110323   0.0020526
   12   0.0150366   0.0363753  -0.0000000   0.0077015   0.0370470   0.0050629
   13   0.1953663   0.2195618  -0.0000000   0.1624679   0.0352187  -0.1693738
   14  -0.1634357   0.0360897   0.0000000   0.0756497  -0.1256422   0.2281591
   15  -0.0000000  -0.0000000  -0.2934769   0.0000000  -0.0000000   0.0000000
   16  -0.0011016   0.0068139  -0.0000000   0.0245043   0.0157994  -0.0015442
   17   0.0067742  -0.0262550   0.0000000  -0.0878234  -0.0691929  -0.0005110
   18  -0.1486232   0.1189839   0.0000000  -0.0107709   0.2519347   0.1725796
   19   0.0682470  -0.1241381  -0.0000000  -0.1018632   0.0745738  -0.2595873
   20  -0.0000000  -0.0000000  -0.3603275  -0.0000000  -0.0000000   0.0000000
   21   0.0259456  -0.0102057   0.0000000   0.0053355  -0.0072837  -0.0000817
   22  -0.0802137   0.0392360  -0.0000000  -0.0291527   0.0235122  -0.0076034
   23  -0.1016748  -0.2303370   0.0000000   0.1494552   0.0115564  -0.1895527
   24  -0.3141681  -0.0255888   0.0000000   0.1571123   0.0553780   0.2337356
   25  -0.0000000  -0.0000000  -0.2878929  -0.0000000  -0.0000000   0.0000000
   26   0.0060966   0.0116471  -0.0000000  -0.0027401   0.0110323   0.0020526
   27  -0.0150366  -0.0363753   0.0000000   0.0077015  -0.0370470   0.0050629
   28   0.1953663   0.2195618  -0.0000000  -0.1624679   0.0352187   0.1693738
   29  -0.1634357   0.0360897  -0.0000000  -0.0756497  -0.1256422  -0.2281591
   30  -0.0000000  -0.0000000  -0.2934769  -0.0000000  -0.0000000   0.0000000
   31  -0.2180798  -0.0864273   0.0000000  -0.1677249   0.0250855  -0.1653551
   32  -0.1830211  -0.0762615   0.0000000   0.0012754  -0.0490664   0.2861514
   33   0.2180798   0.0864273  -0.0000000  -0.1677249  -0.0250855  -0.1653551
   34   0.1830211   0.0762615   0.0000000   0.0012754   0.0490664   0.2861514
   35   0.0044428   0.0010627   0.0000000  -0.0244912  -0.0045067   0.0097217
   36  -0.0057048  -0.0236622  -0.0000000   0.0988035   0.0163309  -0.0468193
   37   0.1487621  -0.1340161  -0.0000000   0.1000396  -0.1722233  -0.1404849
   38  -0.0443951   0.2511196  -0.0000000  -0.1661596  -0.1945090   0.0394527
   39  -0.0000000  -0.0000000  -0.1462543  -0.0000000  -0.0000000   0.0000000
   40  -0.0047300  -0.0144268   0.0000000   0.0088560   0.0023173  -0.0039564
   41   0.0273746   0.0326920  -0.0000000  -0.0211042  -0.0092036   0.0064359
   42  -0.0584983   0.2471647  -0.0000000   0.1093198   0.1992213   0.0782263
   43   0.1556158  -0.1306804  -0.0000000   0.2902751   0.2021287  -0.1062819
   44  -0.0000000  -0.0000000  -0.0839053   0.0000000  -0.0000000   0.0000000
   45   0.0138867  -0.1724622   0.0000000   0.1599296   0.2332301  -0.0373086
   46   0.0301897  -0.1487492   0.0000000  -0.1461994  -0.2250290  -0.0479185
   47   0.0946282  -0.0583192  -0.0000000   0.2473078   0.2309744  -0.0321120
   48  -0.0044428  -0.0010627   0.0000000  -0.0244912   0.0045067   0.0097217
   49   0.0057048   0.0236622  -0.0000000   0.0988035  -0.0163309  -0.0468193
   50   0.1487621  -0.1340161   0.0000000  -0.1000396  -0.1722233   0.1404849
   51  -0.0443951   0.2511196  -0.0000000   0.1661596  -0.1945090  -0.0394527
   52  -0.0000000  -0.0000000  -0.1462543   0.0000000   0.0000000   0.0000000
   53   0.0047300   0.0144268  -0.0000000   0.0088560  -0.0023173  -0.0039564
   54  -0.0273746  -0.0326920   0.0000000  -0.0211042   0.0092036   0.0064359
   55  -0.0584983   0.2471647  -0.0000000  -0.1093198   0.1992213  -0.0782263
   56   0.1556158  -0.1306804   0.0000000  -0.2902751   0.2021287   0.1062819
   57  -0.0000000  -0.0000000  -0.0839053   0.0000000   0.0000000   0.0000000
   58  -0.0138867   0.1724622  -0.0000000   0.1599296  -0.2332301  -0.0373086
   59  -0.0301897   0.1487492  -0.0000000  -0.1461994   0.2250290  -0.0479185
   60  -0.0946282   0.0583192   0.0000000   0.2473078  -0.2309744  -0.0321120
           31          32          33          34          35          36
    1   0.0139818  -0.0000000   0.0000000   0.0000000  -0.0000000  -0.0000000
    2  -0.0690541   0.0000000  -0.0000000  -0.0000000   0.0000000   0.0000000
    3  -0.2372928   0.0000000  -0.0000000  -0.0000000  -0.0000000   0.0000000
    4  -0.1611586   0.0000000   0.0000000   0.0000000   0.0000000   0.0000000
    5   0.0000000   0.3845043  -0.0270209   0.0149225  -0.3748796  -0.4673190
    6   0.0026786  -0.0000000  -0.0000000  -0.0000000   0.0000000  -0.0000000
    7  -0.0033355   0.0000000   0.0000000   0.0000000  -0.0000000  -0.0000000
    8   0.1871945  -0.0000000  -0.0000000  -0.0000000   0.0000000  -0.0000000
    9   0.1152361  -0.0000000   0.0000000  -0.0000000   0.0000000  -0.0000000
   10   0.0000000   0.1351279  -0.1541804   0.4627610  -0.1914613   0.2486488
   11   0.0022257   0.0000000   0.0000000   0.0000000  -0.0000000   0.0000000
   12  -0.0091650  -0.0000000   0.0000000  -0.0000000   0.0000000  -0.0000000
   13  -0.1829816   0.0000000  -0.0000000   0.0000000  -0.0000000   0.0000000
   14  -0.1792750   0.0000000   0.0000000   0.0000000  -0.0000000   0.0000000
   15  -0.0000000  -0.1540250  -0.1506891   0.4577668   0.2052159   0.3142214
   16   0.0139818  -0.0000000  -0.0000000  -0.0000000   0.0000000  -0.0000000
   17  -0.0690541   0.0000000   0.0000000   0.0000000  -0.0000000  -0.0000000
   18   0.2372928  -0.0000000  -0.0000000  -0.0000000   0.0000000  -0.0000000
   19   0.1611586  -0.0000000   0.0000000  -0.0000000   0.0000000   0.0000000
   20  -0.0000000  -0.3845043  -0.0270209  -0.0149225   0.3748796  -0.4673190
   21   0.0026786   0.0000000   0.0000000   0.0000000   0.0000000   0.0000000
   22  -0.0033355  -0.0000000   0.0000000   0.0000000  -0.0000000  -0.0000000
   23  -0.1871945   0.0000000  -0.0000000   0.0000000   0.0000000   0.0000000
   24  -0.1152361   0.0000000  -0.0000000  -0.0000000  -0.0000000   0.0000000
   25  -0.0000000  -0.1351279  -0.1541804  -0.4627610   0.1914613   0.2486488
   26   0.0022257   0.0000000  -0.0000000   0.0000000  -0.0000000  -0.0000000
   27  -0.0091650  -0.0000000   0.0000000   0.0000000   0.0000000  -0.0000000
   28   0.1829816  -0.0000000   0.0000000  -0.0000000   0.0000000   0.0000000
   29   0.1792750  -0.0000000   0.0000000   0.0000000   0.0000000  -0.0000000
   30   0.0000000   0.1540250  -0.1506891  -0.4577668  -0.2052159   0.3142214
   31   0.1881335  -0.0000000  -0.0000000  -0.0000000   0.0000000  -0.0000000
   32   0.0140305   0.0000000  -0.0000000   0.0000000   0.0000000   0.0000000
   33   0.1881335  -0.0000000   0.0000000  -0.0000000   0.0000000   0.0000000
   34   0.0140305  -0.0000000   0.0000000  -0.0000000  -0.0000000   0.0000000
   35   0.0137540  -0.0000000   0.0000000   0.0000000  -0.0000000  -0.0000000
   36  -0.0571022   0.0000000  -0.0000000  -0.0000000   0.0000000  -0.0000000
   37  -0.2355023   0.0000000   0.0000000   0.0000000  -0.0000000   0.0000000
   38  -0.1465451   0.0000000   0.0000000   0.0000000  -0.0000000   0.0000000
   39  -0.0000000  -0.3364736   0.4003608  -0.0081756  -0.2467953  -0.2535578
   40   0.0004018  -0.0000000   0.0000000  -0.0000000  -0.0000000   0.0000000
   41  -0.0059084   0.0000000   0.0000000   0.0000000  -0.0000000  -0.0000000
   42   0.1473145  -0.0000000   0.0000000  -0.0000000  -0.0000000  -0.0000000
   43   0.0894815  -0.0000000  -0.0000000  -0.0000000   0.0000000   0.0000000
   44  -0.0000000  -0.2654529   0.4467852   0.0033656  -0.4150242   0.4053032
   45   0.1893293  -0.0000000  -0.0000000  -0.0000000   0.0000000   0.0000000
   46  -0.1642674   0.0000000   0.0000000   0.0000000  -0.0000000   0.0000000
   47   0.1422654  -0.0000000  -0.0000000  -0.0000000   0.0000000  -0.0000000
   48   0.0137540  -0.0000000  -0.0000000  -0.0000000   0.0000000  -0.0000000
   49  -0.0571022   0.0000000   0.0000000   0.0000000  -0.0000000  -0.0000000
   50   0.2355023  -0.0000000   0.0000000  -0.0000000   0.0000000   0.0000000
   51   0.1465451   0.0000000   0.0000000   0.0000000   0.0000000   0.0000000
   52   0.0000000   0.3364736   0.4003608   0.0081756   0.2467953  -0.2535578
   53   0.0004018   0.0000000   0.0000000  -0.0000000   0.0000000  -0.0000000
   54  -0.0059084  -0.0000000  -0.0000000   0.0000000  -0.0000000   0.0000000
   55  -0.1473145   0.0000000   0.0000000   0.0000000   0.0000000  -0.0000000
   56  -0.0894815  -0.0000000  -0.0000000  -0.0000000  -0.0000000  -0.0000000
   57   0.0000000   0.2654529   0.4467852  -0.0033656   0.4150242   0.4053032
   58   0.1893293  -0.0000000   0.0000000  -0.0000000   0.0000000   0.0000000
   59  -0.1642674   0.0000000   0.0000000   0.0000000   0.0000000  -0.0000000
   60   0.1422654  -0.0000000   0.0000000  -0.0000000   0.0000000   0.0000000
           37          38          39          40          41          42
    1   0.0000000   0.0000000  -0.0000000  -0.0000000  -0.0796849   0.0687514
    2  -0.0000000  -0.0000000   0.0000000   0.0000000   0.4627866  -0.3915198
    3   0.0000000   0.0000000   0.0000000   0.0000000   0.3582786  -0.3719482
    4   0.0000000   0.0000000  -0.0000000   0.0000000   0.0950359  -0.2140272
    5  -0.0348605  -0.0225370   0.4582675   0.5309146  -0.0000000   0.0000000
    6  -0.0000000  -0.0000000   0.0000000  -0.0000000  -0.0258399  -0.0229711
    7   0.0000000   0.0000000  -0.0000000   0.0000000   0.1571743   0.1306604
    8   0.0000000   0.0000000   0.0000000   0.0000000   0.0089848  -0.1234444
    9  -0.0000000  -0.0000000  -0.0000000   0.0000000   0.2528807  -0.2515305
   10   0.5899365   0.2221573  -0.1689885  -0.4869738   0.0000000  -0.0000000
   11   0.0000000  -0.0000000  -0.0000000   0.0000000  -0.0357137   0.0326322
   12  -0.0000000  -0.0000000   0.0000000  -0.0000000   0.2154404  -0.1892245
   13   0.0000000   0.0000000   0.0000000   0.0000000  -0.0871124  -0.1133335
   14   0.0000000  -0.0000000   0.0000000  -0.0000000   0.1787977  -0.1663104
   15  -0.5479277  -0.2117452  -0.1931851   0.4851623  -0.0000000  -0.0000000
   16  -0.0000000  -0.0000000   0.0000000  -0.0000000  -0.0796849  -0.0687514
   17   0.0000000   0.0000000  -0.0000000   0.0000000   0.4627866   0.3915198
   18   0.0000000  -0.0000000   0.0000000  -0.0000000  -0.3582786  -0.3719482
   19   0.0000000   0.0000000   0.0000000   0.0000000  -0.0950359  -0.2140272
   20  -0.0348605   0.0225370   0.4582675  -0.5309146   0.0000000   0.0000000
   21   0.0000000   0.0000000   0.0000000   0.0000000  -0.0258399   0.0229711
   22  -0.0000000  -0.0000000   0.0000000  -0.0000000   0.1571743  -0.1306604
   23   0.0000000  -0.0000000   0.0000000   0.0000000  -0.0089848  -0.1234444
   24  -0.0000000  -0.0000000   0.0000000  -0.0000000  -0.2528807  -0.2515305
   25   0.5899365  -0.2221573  -0.1689885   0.4869738  -0.0000000   0.0000000
   26   0.0000000  -0.0000000  -0.0000000  -0.0000000  -0.0357137  -0.0326322
   27  -0.0000000   0.0000000   0.0000000   0.0000000   0.2154404   0.1892245
   28   0.0000000  -0.0000000   0.0000000   0.0000000   0.0871124  -0.1133335
   29   0.0000000   0.0000000  -0.0000000   0.0000000  -0.1787977  -0.1663104
   30  -0.5479277   0.2117452  -0.1931851  -0.4851623   0.0000000  -0.0000000
   31  -0.0000000  -0.0000000   0.0000000  -0.0000000  -0.3731505   0.2284237
   32   0.0000000   0.0000000   0.0000000   0.0000000  -0.3727878   0.1216110
   33   0.0000000   0.0000000   0.0000000   0.0000000  -0.3731505  -0.2284237
   34   0.0000000  -0.0000000  -0.0000000  -0.0000000  -0.3727878  -0.1216110
   35  -0.0000000   0.0000000  -0.0000000   0.0000000   0.0677909   0.0506707
   36  -0.0000000  -0.0000000   0.0000000  -0.0000000  -0.3793597  -0.2856766
   37   0.0000000  -0.0000000   0.0000000  -0.0000000  -0.4200621  -0.4192415
   38  -0.0000000  -0.0000000   0.0000000  -0.0000000  -0.1944668  -0.2469706
   39  -0.0018930   0.5493795  -0.5481769   0.2657346  -0.0000000  -0.0000000
   40   0.0000000  -0.0000000   0.0000000  -0.0000000  -0.0341946  -0.0038687
   41  -0.0000000   0.0000000  -0.0000000   0.0000000   0.1937388   0.0179929
   42  -0.0000000   0.0000000  -0.0000000  -0.0000000  -0.1196688  -0.1645315
   43  -0.0000000   0.0000000   0.0000000  -0.0000000  -0.1094341  -0.2903175
   44   0.0201933  -0.5176429   0.4004609  -0.1450105   0.0000000   0.0000000
   45   0.0000000  -0.0000000   0.0000000  -0.0000000  -0.0563394  -0.2031139
   46   0.0000000   0.0000000   0.0000000  -0.0000000  -0.3227527  -0.2984657
   47   0.0000000  -0.0000000  -0.0000000   0.0000000   0.1279179   0.3442635
   48   0.0000000  -0.0000000   0.0000000   0.0000000   0.0677909  -0.0506707
   49  -0.0000000   0.0000000  -0.0000000  -0.0000000  -0.3793597   0.2856766
   50   0.0000000   0.0000000   0.0000000   0.0000000   0.4200621  -0.4192415
   51  -0.0000000   0.0000000   0.0000000   0.0000000   0.1944668  -0.2469706
   52  -0.0018930  -0.5493795  -0.5481769  -0.2657346   0.0000000  -0.0000000
   53  -0.0000000  -0.0000000  -0.0000000  -0.0000000  -0.0341946   0.0038687
   54  -0.0000000   0.0000000   0.0000000   0.0000000   0.1937388  -0.0179929
   55  -0.0000000   0.0000000   0.0000000   0.0000000   0.1196688  -0.1645315
   56   0.0000000   0.0000000   0.0000000   0.0000000   0.1094341  -0.2903175
   57   0.0201933   0.5176429   0.4004609   0.1450105  -0.0000000   0.0000000
   58   0.0000000  -0.0000000  -0.0000000  -0.0000000  -0.0563394   0.2031139
   59  -0.0000000  -0.0000000  -0.0000000  -0.0000000  -0.3227527   0.2984657
   60   0.0000000   0.0000000   0.0000000   0.0000000   0.1279179  -0.3442635
           43          44          45          46          47          48
    1   0.0268295  -0.0454723   0.0809826   0.0472963   0.0154388   0.1153006
    2  -0.1462451   0.2782757  -0.4887960  -0.2863860  -0.1071096  -0.7198688
    3  -0.3706805  -0.0027172   0.0443994  -0.1761708   0.1268233   0.0919771
    4   0.1622027   0.0094721   0.1930256   0.2681196   0.1172809  -0.0649791
    5   0.0000000  -0.0000000  -0.0000000  -0.0000000   0.0000000   0.0000000
    6  -0.0103711   0.0404025  -0.0851093   0.0750156  -0.0381540  -0.1098268
    7   0.0619745  -0.2515294   0.5119280  -0.4671030   0.2387084   0.6933478
    8  -0.2199685  -0.1761447   0.0555474   0.1731955   0.2381678   0.2382357
    9   0.2271527   0.0100327   0.2212667   0.0163584   0.2783070   0.0328081
   10  -0.0000000   0.0000000  -0.0000000  -0.0000000  -0.0000000  -0.0000000
   11  -0.0139243   0.0575704   0.0983641  -0.1015506  -0.0137325  -0.0363522
   12   0.0859150  -0.3563256  -0.6023501   0.6317612   0.0907994   0.2336343
   13  -0.3164337   0.2305341   0.1651170   0.0385844   0.0239168  -0.2609104
   14   0.3106415  -0.1378850   0.1091164  -0.0631644   0.2586988  -0.2462028
   15  -0.0000000  -0.0000000  -0.0000000  -0.0000000  -0.0000000   0.0000000
   16  -0.0268295  -0.0454723  -0.0809826   0.0472963  -0.0154388   0.1153006
   17   0.1462451   0.2782757   0.4887960  -0.2863860   0.1071096  -0.7198688
   18  -0.3706805   0.0027172   0.0443994   0.1761708   0.1268233  -0.0919771
   19   0.1622027  -0.0094721   0.1930256  -0.2681196   0.1172809   0.0649791
   20  -0.0000000   0.0000000   0.0000000   0.0000000   0.0000000  -0.0000000
   21   0.0103711   0.0404025   0.0851093   0.0750156   0.0381540  -0.1098268
   22  -0.0619745  -0.2515294  -0.5119280  -0.4671030  -0.2387084   0.6933478
   23  -0.2199685   0.1761447   0.0555474  -0.1731955   0.2381678  -0.2382357
   24   0.2271527  -0.0100327   0.2212667  -0.0163584   0.2783070  -0.0328081
   25   0.0000000  -0.0000000  -0.0000000   0.0000000  -0.0000000   0.0000000
   26   0.0139243   0.0575704  -0.0983641  -0.1015506   0.0137325  -0.0363522
   27  -0.0859150  -0.3563256   0.6023501   0.6317612  -0.0907994   0.2336343
   28  -0.3164337  -0.2305341   0.1651170  -0.0385844   0.0239168   0.2609104
   29   0.3106415   0.1378850   0.1091164   0.0631644   0.2586988   0.2462028
   30  -0.0000000   0.0000000   0.0000000  -0.0000000   0.0000000  -0.0000000
   31  -0.1698015   0.2138758  -0.5118022   0.2012626  -0.4835186  -0.4269271
   32  -0.4995414   0.3785834   0.2940363  -0.2037609  -0.1936957  -0.1404163
   33   0.1698015   0.2138758   0.5118022   0.2012626   0.4835186  -0.4269271
   34   0.4995414   0.3785834  -0.2940363  -0.2037609   0.1936957  -0.1404163
   35   0.0913364  -0.0456234   0.0310504  -0.0554074  -0.0664479  -0.0850119
   36  -0.5301423   0.2760002  -0.1944351   0.3436481   0.4246876   0.5182718
   37  -0.2067661  -0.1542983  -0.1144145   0.1688780  -0.0048452   0.0298042
   38   0.0991327  -0.2286416   0.1813156  -0.2830586  -0.2718515  -0.1014535
   39  -0.0000000  -0.0000000  -0.0000000  -0.0000000   0.0000000  -0.0000000
   40  -0.0487128   0.0493560   0.0687140  -0.0793716  -0.0350896   0.0682148
   41   0.2834446  -0.2973345  -0.4383420   0.5098424   0.2286235  -0.4201440
   42   0.0313536  -0.2403351   0.0809706  -0.1750795  -0.3659901  -0.0263919
   43   0.1206063  -0.3372687  -0.1832571   0.1031776  -0.0264507  -0.0397006
   44  -0.0000000   0.0000000   0.0000000   0.0000000   0.0000000  -0.0000000
   45   0.3677373  -0.4482044   0.2211751  -0.4313537  -0.4893632  -0.3499056
   46  -0.1242600  -0.1603755   0.2648986  -0.4052145  -0.4702938   0.1886968
   47  -0.2165939   0.5229945   0.3338978  -0.2710856   0.0459967   0.2680355
   48  -0.0913364  -0.0456234  -0.0310504  -0.0554074   0.0664479  -0.0850119
   49   0.5301423   0.2760002   0.1944351   0.3436481  -0.4246876   0.5182718
   50  -0.2067661   0.1542983  -0.1144145  -0.1688780  -0.0048452  -0.0298042
   51   0.0991327   0.2286416   0.1813156   0.2830586  -0.2718515   0.1014535
   52  -0.0000000   0.0000000   0.0000000   0.0000000  -0.0000000  -0.0000000
   53   0.0487128   0.0493560  -0.0687140  -0.0793716   0.0350896   0.0682148
   54  -0.2834446  -0.2973345   0.4383420   0.5098424  -0.2286235  -0.4201440
   55   0.0313536   0.2403351   0.0809706   0.1750795  -0.3659901   0.0263919
   56   0.1206063   0.3372687  -0.1832571  -0.1031776  -0.0264507   0.0397006
   57  -0.0000000   0.0000000  -0.0000000  -0.0000000   0.0000000   0.0000000
   58  -0.3677373  -0.4482044  -0.2211751  -0.4313537   0.4893632  -0.3499056
   59   0.1242600  -0.1603755  -0.2648986  -0.4052145   0.4702938   0.1886968
   60   0.2165939   0.5229945  -0.3338978  -0.2710856  -0.0459967   0.2680355
           49          50          51          52          53          54
    1   0.0587846   0.0049883  -0.0787818   0.0024714  -0.0017444  -0.0749397
    2  -0.3673260  -0.0264319   0.5462553  -0.0294414   0.0116561   0.5315037
    3   0.1424419  -0.0614278  -0.5883065  -0.1079117  -0.0734190   0.0252373
    4  -0.1815414  -0.3729481  -0.1171742   0.5674227   0.1519439   0.2403635
    5  -0.0000000  -0.0000000   0.0000000  -0.0000000  -0.0000000  -0.0000000
    6  -0.0547551  -0.0963824   0.0238594   0.1025761   0.0049352  -0.0333546
    7   0.3427044   0.6221970  -0.1629047  -0.7016831  -0.0472445   0.2256299
    8   0.2166362  -0.2066629  -0.1493592  -0.0713971   0.2326823  -0.7438271
    9  -0.1642790  -0.0554081   0.4597487  -0.0343283   0.6051373   0.2431857
   10  -0.0000000  -0.0000000  -0.0000000  -0.0000000  -0.0000000  -0.0000000
   11   0.0504061   0.1098698   0.0336699   0.0279968  -0.0008123   0.0823872
   12  -0.3084764  -0.7134902  -0.2257704  -0.2069845   0.0201282  -0.5731490
   13   0.1570303  -0.2092844  -0.0509900   0.4871593   0.4511096  -0.3783951
   14  -0.1304333   0.0067302   0.4191991   0.2704103  -0.4265588  -0.4112979
   15  -0.0000000  -0.0000000  -0.0000000  -0.0000000   0.0000000   0.0000000
   16  -0.0587846   0.0049883  -0.0787818  -0.0024714  -0.0017444   0.0749397
   17   0.3673260  -0.0264319   0.5462553   0.0294414   0.0116561  -0.5315037
   18   0.1424419   0.0614278   0.5883065  -0.1079117   0.0734190   0.0252373
   19  -0.1815414   0.3729481   0.1171742   0.5674227  -0.1519439   0.2403635
   20   0.0000000   0.0000000  -0.0000000   0.0000000   0.0000000  -0.0000000
   21   0.0547551  -0.0963824   0.0238594  -0.1025761   0.0049352   0.0333546
   22  -0.3427044   0.6221970  -0.1629047   0.7016831  -0.0472445  -0.2256299
   23   0.2166362   0.2066629   0.1493592  -0.0713971  -0.2326823  -0.7438271
   24  -0.1642790   0.0554081  -0.4597487  -0.0343283  -0.6051373   0.2431857
   25  -0.0000000  -0.0000000   0.0000000   0.0000000   0.0000000   0.0000000
   26  -0.0504061   0.1098698   0.0336699  -0.0279968  -0.0008123  -0.0823872
   27   0.3084764  -0.7134902  -0.2257704   0.2069845   0.0201282   0.5731490
   28   0.1570303   0.2092844   0.0509900   0.4871593  -0.4511096  -0.3783951
   29  -0.1304333  -0.0067302  -0.4191991   0.2704103   0.4265588  -0.4112979
   30   0.0000000   0.0000000  -0.0000000   0.0000000   0.0000000  -0.0000000
   31  -0.0802311  -0.1915284  -0.2384434   0.3341351  -0.5106607  -0.0919990
   32   0.4385054   0.2800843  -0.1794363   0.1636242   0.5038189   0.2869918
   33   0.0802311  -0.1915284  -0.2384434  -0.3341351  -0.5106607   0.0919990
   34  -0.4385054   0.2800843  -0.1794363  -0.1636242   0.5038189  -0.2869918
   35   0.0680101  -0.0236176  -0.0704621  -0.0085161   0.0388659  -0.0394076
   36  -0.4206121   0.1725930   0.4559834   0.0766815  -0.2739351   0.2674100
   37   0.1563907   0.0954876  -0.0508629  -0.0109521   0.2011282   0.1286564
   38   0.0109988  -0.0379883  -0.1187983   0.2841010  -0.0772068   0.0360468
   39   0.0000000   0.0000000   0.0000000   0.0000000  -0.0000000   0.0000000
   40  -0.1196678  -0.0733592   0.0371852   0.0023635  -0.0437628  -0.0114454
   41   0.7648297   0.4755839  -0.2405307  -0.0333057   0.3032330   0.0814606
   42  -0.0293036  -0.3567998   0.1464850  -0.4368748   0.1752086  -0.1973037
   43   0.1100364   0.1634745   0.2559955  -0.0259181  -0.1022515   0.0565539
   44   0.0000000   0.0000000  -0.0000000  -0.0000000   0.0000000  -0.0000000
   45   0.2628709  -0.0568976  -0.2948290   0.2210453   0.1075440  -0.0765269
   46  -0.3748600  -0.5009752   0.2875678  -0.3496592  -0.0014771  -0.1712456
   47  -0.5304881  -0.3393952  -0.0953019   0.1047334  -0.1461055  -0.0976850
   48  -0.0680101  -0.0236176  -0.0704621   0.0085161   0.0388659   0.0394076
   49   0.4206121   0.1725930   0.4559834  -0.0766815  -0.2739351  -0.2674100
   50   0.1563907  -0.0954876   0.0508629  -0.0109521  -0.2011282   0.1286564
   51   0.0109988   0.0379883   0.1187983   0.2841010   0.0772068   0.0360468
   52  -0.0000000   0.0000000  -0.0000000  -0.0000000  -0.0000000   0.0000000
   53   0.1196678  -0.0733592   0.0371852  -0.0023635  -0.0437628   0.0114454
   54  -0.7648297   0.4755839  -0.2405307   0.0333057   0.3032330  -0.0814606
   55  -0.0293036   0.3567998  -0.1464850  -0.4368748  -0.1752086  -0.1973037
   56   0.1100364  -0.1634745  -0.2559955  -0.0259181   0.1022515   0.0565539
   57  -0.0000000  -0.0000000   0.0000000   0.0000000  -0.0000000  -0.0000000
   58  -0.2628709  -0.0568976  -0.2948290  -0.2210453   0.1075440   0.0765269
   59   0.3748600  -0.5009752   0.2875678   0.3496592  -0.0014771   0.1712456
   60   0.5304881  -0.3393952  -0.0953019  -0.1047334  -0.1461055   0.0976850
           55          56          57          58          59          60
    1   0.0625909  -0.0132576   0.0046741  -0.0059006   0.0006682   0.0576273
    2  -0.4268227   0.0700534  -0.0231948   0.0413808  -0.0025113  -0.4477515
    3  -0.0419610   0.3754396  -0.2239071  -0.1265105   0.1230970   0.6281273
    4   0.2673283   0.1339592   0.1953848   0.4425084  -0.7127337   0.1415724
    5  -0.0000000  -0.0000000  -0.0000000  -0.0000000   0.0000000   0.0000000
    6  -0.0021027  -0.0169091  -0.0194522   0.0403677  -0.0097387  -0.0570845
    7   0.0019319   0.1207982   0.1404996  -0.3024126   0.0766294   0.4265920
    8  -0.1162963  -0.2359217  -0.4699132  -0.1281253   0.5411802  -0.2096290
    9  -0.1677905  -0.1762443   0.0460237   0.1276331  -0.2594943  -0.6207535
   10  -0.0000000  -0.0000000  -0.0000000  -0.0000000   0.0000000   0.0000000
   11   0.0617264   0.0280301   0.0170497   0.0238533   0.0097249   0.0567548
   12  -0.4250393  -0.1888268  -0.1244927  -0.1819193  -0.0759112  -0.4257116
   13   0.0860639  -0.0928694  -0.4872424   0.1831283   0.3894535  -0.4389937
   14   0.2126476  -0.2750389  -0.0620316   0.1245220   0.4708299   0.5076827
   15  -0.0000000  -0.0000000  -0.0000000  -0.0000000  -0.0000000  -0.0000000
   16  -0.0625909  -0.0132576   0.0046741   0.0059006   0.0006682  -0.0576273
   17   0.4268227   0.0700534  -0.0231948  -0.0413808  -0.0025113   0.4477515
   18  -0.0419610  -0.3754396   0.2239071  -0.1265105  -0.1230970   0.6281273
   19   0.2673283  -0.1339592  -0.1953848   0.4425084   0.7127337   0.1415724
   20   0.0000000   0.0000000   0.0000000   0.0000000  -0.0000000   0.0000000
   21   0.0021027  -0.0169091  -0.0194522  -0.0403677  -0.0097387   0.0570845
   22  -0.0019319   0.1207982   0.1404996   0.3024126   0.0766294  -0.4265920
   23  -0.1162963   0.2359217   0.4699132  -0.1281253  -0.5411802  -0.2096290
   24  -0.1677905   0.1762443  -0.0460237   0.1276331   0.2594943  -0.6207535
   25   0.0000000   0.0000000   0.0000000   0.0000000  -0.0000000  -0.0000000
   26  -0.0617264   0.0280301   0.0170497  -0.0238533   0.0097249  -0.0567548
   27   0.4250393  -0.1888268  -0.1244927   0.1819193  -0.0759112   0.4257116
   28   0.0860639   0.0928694   0.4872424   0.1831283  -0.3894535  -0.4389937
   29   0.2126476   0.2750389   0.0620316   0.1245220  -0.4708299   0.5076827
   30   0.0000000   0.0000000   0.0000000   0.0000000   0.0000000  -0.0000000
   31   0.1098269   0.1462345   0.0155064   0.0472561   0.0231936   0.2814066
   32   0.1534175   0.2290309  -0.1897311   0.0620059  -0.0461302  -0.3067860
   33  -0.1098269   0.1462345   0.0155064  -0.0472561   0.0231936  -0.2814066
   34  -0.1534175   0.2290309  -0.1897311  -0.0620059  -0.0461302   0.3067860
   35  -0.0495567   0.0144701   0.0597880   0.0629268   0.0304538  -0.0112258
   36   0.3673025  -0.0920962  -0.4671277  -0.4932828  -0.2490920   0.0647971
   37  -0.4896761  -0.3299170   0.5398035   0.4118325   0.2545891   0.2666427
   38  -0.2363552  -0.4923068  -0.3433345  -0.6750836  -0.4591037   0.0343401
   39  -0.0000000   0.0000000   0.0000000  -0.0000000  -0.0000000  -0.0000000
   40   0.0204758  -0.0195942  -0.0538969  -0.0687646  -0.0387336  -0.0018155
   41  -0.1502086   0.1465189   0.4203250   0.5429316   0.3170847   0.0240226
   42   0.1737755   0.4782152   0.3540114   0.5554913   0.3198871  -0.0297114
   43   0.6156186   0.3400559  -0.5652296  -0.4335573  -0.2671026  -0.1800489
   44   0.0000000   0.0000000   0.0000000   0.0000000   0.0000000   0.0000000
   45  -0.3927091  -0.3809573   0.0199531  -0.2145255  -0.1765938   0.0479006
   46   0.2950832   0.3567113   0.0141138   0.1312124   0.0690507  -0.0509424
   47  -0.4501499  -0.4280064   0.2031659   0.0109890   0.0344001   0.1502151
   48   0.0495567   0.0144701   0.0597880  -0.0629268   0.0304538   0.0112258
   49  -0.3673025  -0.0920962  -0.4671277   0.4932828  -0.2490920  -0.0647971
   50  -0.4896761   0.3299170  -0.5398035   0.4118325  -0.2545891   0.2666427
   51  -0.2363552   0.4923068   0.3433345  -0.6750836   0.4591037   0.0343401
   52   0.0000000   0.0000000  -0.0000000   0.0000000   0.0000000  -0.0000000
   53  -0.0204758  -0.0195942  -0.0538969   0.0687646  -0.0387336   0.0018155
   54   0.1502086   0.1465189   0.4203250  -0.5429316   0.3170847  -0.0240226
   55   0.1737755  -0.4782152  -0.3540114   0.5554913  -0.3198871  -0.0297114
   56   0.6156186  -0.3400559   0.5652296  -0.4335573   0.2671026  -0.1800489
   57  -0.0000000  -0.0000000   0.0000000   0.0000000  -0.0000000   0.0000000
   58   0.3927091  -0.3809573   0.0199531   0.2145255  -0.1765938  -0.0479006
   59  -0.2950832   0.3567113   0.0141138  -0.1312124   0.0690507   0.0509424
   60   0.4501499  -0.4280064   0.2031659  -0.0109890   0.0344001  -0.1502151
 Final Beta MO Coefficients
            1           2           3           4           5           6
    1  -0.7002835   0.7003107  -0.0095160   0.0073602  -0.0103442   0.0114242
    2  -0.0312597   0.0310469   0.0076624  -0.0049251   0.0036255  -0.0044974
    3   0.0015065  -0.0011602  -0.0020562   0.0009275   0.0043227  -0.0040415
    4   0.0003276  -0.0002570  -0.0036540   0.0048314   0.0002215  -0.0005199
    5   0.0000000   0.0000000  -0.0000000  -0.0000000   0.0000000   0.0000000
    6   0.0069871  -0.0076260  -0.1070126  -0.1235702   0.0973753  -0.0199674
    7   0.0074343  -0.0067521  -0.0116350  -0.0119559   0.0042548  -0.0007566
    8   0.0027186  -0.0029788   0.0043552   0.0043190  -0.0000794   0.0000238
    9  -0.0035060   0.0033907   0.0012785   0.0011766  -0.0002961   0.0000906
   10   0.0000000  -0.0000000  -0.0000000  -0.0000000  -0.0000000   0.0000000
   11  -0.0074734  -0.0081519   0.6920048   0.6892420   0.0100251  -0.0058794
   12  -0.0074660  -0.0067944   0.0321108   0.0318778  -0.0005474  -0.0002012
   13   0.0011342   0.0014127   0.0015895   0.0014549  -0.0004943   0.0001653
   14   0.0042958   0.0042904  -0.0010324  -0.0007331  -0.0002095   0.0000097
   15  -0.0000000  -0.0000000   0.0000000   0.0000000  -0.0000000  -0.0000000
   16   0.7002835   0.7003107   0.0095160   0.0073602  -0.0103442  -0.0114242
   17   0.0312597   0.0310469  -0.0076624  -0.0049251   0.0036255   0.0044974
   18   0.0015065   0.0011602  -0.0020562  -0.0009275  -0.0043227  -0.0040415
   19   0.0003276   0.0002570  -0.0036540  -0.0048314  -0.0002215  -0.0005199
   20  -0.0000000  -0.0000000   0.0000000   0.0000000  -0.0000000  -0.0000000
   21  -0.0069871  -0.0076260   0.1070126  -0.1235702   0.0973753   0.0199674
   22  -0.0074343  -0.0067521   0.0116350  -0.0119559   0.0042548   0.0007566
   23   0.0027186   0.0029788   0.0043552  -0.0043190   0.0000794   0.0000238
   24  -0.0035060  -0.0033907   0.0012785  -0.0011766   0.0002961   0.0000906
   25  -0.0000000  -0.0000000   0.0000000   0.0000000  -0.0000000   0.0000000
   26   0.0074734  -0.0081519  -0.6920048   0.6892420   0.0100251   0.0058794
   27   0.0074660  -0.0067944  -0.0321108   0.0318778  -0.0005474   0.0002012
   28   0.0011342  -0.0014127   0.0015895  -0.0014549   0.0004943   0.0001653
   29   0.0042958  -0.0042904  -0.0010324   0.0007331   0.0002095   0.0000097
   30   0.0000000   0.0000000  -0.0000000  -0.0000000   0.0000000  -0.0000000
   31  -0.0002296   0.0000905   0.0011272   0.0011587  -0.0008290   0.0001479
   32   0.0002453   0.0001054  -0.0061920  -0.0062464   0.0000685   0.0001776
   33   0.0002296   0.0000905  -0.0011272   0.0011587  -0.0008290  -0.0001479
   34  -0.0002453   0.0001054   0.0061920  -0.0062464   0.0000685  -0.0001776
   35  -0.0105333  -0.0107247  -0.0028865  -0.0076153  -0.6935084  -0.7000578
   36  -0.0054825  -0.0055641   0.0001163  -0.0002441  -0.0304822  -0.0307984
   37  -0.0037690  -0.0038236   0.0000828  -0.0000304   0.0012254   0.0012303
   38  -0.0008412  -0.0008522   0.0000135   0.0000509  -0.0012586  -0.0012676
   39  -0.0000000   0.0000000  -0.0000000  -0.0000000   0.0000000   0.0000000
   40  -0.0000451  -0.0000495  -0.0015427  -0.0013738   0.0102148   0.0104808
   41   0.0002985   0.0002985  -0.0001464  -0.0000884   0.0079653   0.0080571
   42   0.0001959   0.0002027  -0.0001033  -0.0000674   0.0032338   0.0032779
   43   0.0000477   0.0000466  -0.0000875  -0.0001001  -0.0033358  -0.0033657
   44   0.0000000  -0.0000000  -0.0000000  -0.0000000   0.0000000   0.0000000
   45   0.0001612   0.0001705  -0.0000287  -0.0000004   0.0062232   0.0062911
   46  -0.0000267  -0.0000255  -0.0000232  -0.0000212  -0.0002417  -0.0002425
   47  -0.0001385  -0.0001263   0.0002512   0.0002538  -0.0002255  -0.0002289
   48   0.0105333  -0.0107247   0.0028865  -0.0076153  -0.6935084   0.7000578
   49   0.0054825  -0.0055641  -0.0001163  -0.0002441  -0.0304822   0.0307984
   50  -0.0037690   0.0038236   0.0000828   0.0000304  -0.0012254   0.0012303
   51  -0.0008412   0.0008522   0.0000135  -0.0000509   0.0012586  -0.0012676
   52  -0.0000000   0.0000000   0.0000000   0.0000000   0.0000000   0.0000000
   53   0.0000451  -0.0000495   0.0015427  -0.0013738   0.0102148  -0.0104808
   54  -0.0002985   0.0002985   0.0001464  -0.0000884   0.0079653  -0.0080571
   55   0.0001959  -0.0002027  -0.0001033   0.0000674  -0.0032338   0.0032779
   56   0.0000477  -0.0000466  -0.0000875   0.0001001   0.0033358  -0.0033657
   57  -0.0000000   0.0000000   0.0000000   0.0000000  -0.0000000   0.0000000
   58  -0.0001612   0.0001705   0.0000287  -0.0000004   0.0062232  -0.0062911
   59   0.0000267  -0.0000255   0.0000232  -0.0000212  -0.0002417   0.0002425
   60   0.0001385  -0.0001263  -0.0002512   0.0002538  -0.0002255   0.0002289
            7           8           9          10          11          12
    1   0.0069034  -0.0116752   0.0002677  -0.0002476  -0.1099333   0.1103039
    2  -0.0057660   0.0077653   0.0001525  -0.0001565   0.2758079  -0.2910138
    3   0.0027129  -0.0026499   0.0000207  -0.0000207  -0.0557989  -0.0212216
    4  -0.0038623   0.0026254   0.0000398  -0.0000425  -0.0133989   0.0080834
    5   0.0000000  -0.0000000  -0.0000000  -0.0000000  -0.0000000  -0.0000000
    6   0.6918830  -0.6825383   0.0010088  -0.0003029  -0.0981053   0.0383251
    7   0.0299932  -0.0292683  -0.0000854  -0.0000068   0.2436801  -0.0996870
    8   0.0002552  -0.0004812  -0.0000170   0.0001045  -0.0134017  -0.0674013
    9  -0.0012692   0.0008842   0.0000342  -0.0000098  -0.0670341   0.0331040
   10  -0.0000000  -0.0000000  -0.0000000   0.0000000  -0.0000000   0.0000000
   11   0.1078948  -0.1242899   0.0017272   0.0015929  -0.0994413  -0.0534738
   12  -0.0020123   0.0008406  -0.0000204   0.0000011   0.2469760   0.1391799
   13  -0.0042266   0.0041713   0.0001475   0.0001664   0.0363769  -0.0482118
   14  -0.0008840   0.0009091  -0.0000036   0.0000017  -0.0569290  -0.0571550
   15  -0.0000000   0.0000000   0.0000000   0.0000000  -0.0000000  -0.0000000
   16  -0.0069034  -0.0116752   0.0002677   0.0002476  -0.1099333  -0.1103039
   17   0.0057660   0.0077653   0.0001525   0.0001565   0.2758079   0.2910138
   18   0.0027129   0.0026499  -0.0000207  -0.0000207   0.0557989  -0.0212216
   19  -0.0038623  -0.0026254  -0.0000398  -0.0000425   0.0133989   0.0080834
   20  -0.0000000   0.0000000  -0.0000000  -0.0000000  -0.0000000  -0.0000000
   21  -0.6918830  -0.6825383   0.0010088   0.0003029  -0.0981053  -0.0383251
   22  -0.0299932  -0.0292683  -0.0000854   0.0000068   0.2436801   0.0996870
   23   0.0002552   0.0004812   0.0000170   0.0001045   0.0134017  -0.0674013
   24  -0.0012692  -0.0008842  -0.0000342  -0.0000098   0.0670341   0.0331040
   25  -0.0000000  -0.0000000   0.0000000   0.0000000   0.0000000   0.0000000
   26  -0.1078948  -0.1242899   0.0017272  -0.0015929  -0.0994413   0.0534738
   27   0.0020123   0.0008406  -0.0000204  -0.0000011   0.2469760  -0.1391799
   28  -0.0042266  -0.0041713  -0.0001475   0.0001664  -0.0363769  -0.0482118
   29  -0.0008840  -0.0009091   0.0000036   0.0000017   0.0569290  -0.0571550
   30  -0.0000000   0.0000000  -0.0000000   0.0000000   0.0000000  -0.0000000
   31  -0.0060993   0.0061396  -0.0000220   0.0000124   0.0371065  -0.0222112
   32  -0.0007757   0.0010962   0.0001530   0.0001538   0.0393112   0.0339606
   33   0.0060993   0.0061396  -0.0000220  -0.0000124   0.0371065   0.0222112
   34   0.0007757   0.0010962   0.0001530  -0.0001538   0.0393112  -0.0339606
   35  -0.0205346  -0.0974517   0.0113162   0.0113183  -0.0405580  -0.1075840
   36  -0.0010815  -0.0044092  -0.0070288  -0.0070287   0.1046231   0.2815502
   37  -0.0000019   0.0002138   0.0031827   0.0031834   0.0260129   0.0104041
   38  -0.0000799  -0.0001540  -0.0033029  -0.0033035   0.0151871   0.0465088
   39   0.0000000  -0.0000000   0.0000000   0.0000000   0.0000000   0.0000000
   40   0.0003626   0.0027205   0.7005118   0.7005129  -0.0198452  -0.0755511
   41   0.0002888   0.0012582   0.0306697   0.0306700   0.0490279   0.1922920
   42   0.0001205   0.0005575   0.0011282   0.0011286   0.0185262   0.0546470
   43  -0.0001246  -0.0004632  -0.0010837  -0.0010838  -0.0109773  -0.0402048
   44   0.0000000  -0.0000000  -0.0000000  -0.0000000   0.0000000   0.0000000
   45   0.0002241   0.0009496   0.0000421   0.0000426   0.0174696   0.0542276
   46  -0.0000120  -0.0000234  -0.0062023  -0.0062023   0.0068520   0.0339353
   47   0.0000077  -0.0000558  -0.0062528  -0.0062527   0.0106707   0.0425442
   48   0.0205346  -0.0974517   0.0113162  -0.0113183  -0.0405580   0.1075840
   49   0.0010815  -0.0044092  -0.0070288   0.0070287   0.1046231  -0.2815502
   50  -0.0000019  -0.0002138  -0.0031827   0.0031834  -0.0260129   0.0104041
   51  -0.0000799   0.0001540   0.0033029  -0.0033035  -0.0151871   0.0465088
   52  -0.0000000   0.0000000  -0.0000000   0.0000000  -0.0000000  -0.0000000
   53  -0.0003626   0.0027205   0.7005119  -0.7005127  -0.0198452   0.0755511
   54  -0.0002888   0.0012582   0.0306697  -0.0306700   0.0490279  -0.1922920
   55   0.0001205  -0.0005575  -0.0011282   0.0011286  -0.0185262   0.0546470
   56  -0.0001246   0.0004632   0.0010837  -0.0010838   0.0109773  -0.0402048
   57   0.0000000   0.0000000   0.0000000   0.0000000   0.0000000  -0.0000000
   58  -0.0002241   0.0009496   0.0000421  -0.0000426   0.0174696  -0.0542276
   59   0.0000120  -0.0000234  -0.0062023   0.0062023   0.0068520  -0.0339353
   60  -0.0000077  -0.0000558  -0.0062529   0.0062527   0.0106707  -0.0425442
           13          14          15          16          17          18
    1   0.0083388   0.0187465  -0.0961577   0.0588663   0.0723307   0.0056584
    2  -0.0263751  -0.0507258   0.2635833  -0.1743169  -0.2157770  -0.0118913
    3  -0.0993332   0.0331251  -0.0741714  -0.0357969  -0.0873759   0.1371865
    4  -0.0063739  -0.1389381  -0.0269264  -0.1857711   0.1605733   0.0623212
    5   0.0000000  -0.0000000   0.0000000  -0.0000000   0.0000000   0.0000000
    6  -0.0418432   0.1361545  -0.0393334   0.0349178  -0.1066227   0.0454283
    7   0.1081914  -0.3647825   0.1076925  -0.1012865   0.3124400  -0.1390712
    8  -0.0338257   0.0510973   0.0919331  -0.1823425  -0.0223715   0.0120693
    9  -0.0213866   0.0192115  -0.0413698   0.0209856   0.0698698   0.0121130
   10  -0.0000000   0.0000000  -0.0000000   0.0000000   0.0000000   0.0000000
   11  -0.0329538   0.1185792   0.0735486  -0.0986545   0.0308555  -0.0242589
   12   0.0850655  -0.3177871  -0.2015154   0.2834009  -0.0913026   0.0742107
   13   0.0523736  -0.0712618   0.0396005  -0.0214559   0.1769257  -0.0796839
   14  -0.0025146  -0.0261575   0.0659800   0.0402304   0.1260089  -0.0384982
   15   0.0000000   0.0000000   0.0000000   0.0000000   0.0000000   0.0000000
   16   0.0083388  -0.0187465   0.0961577   0.0588663   0.0723307  -0.0056584
   17  -0.0263751   0.0507258  -0.2635833  -0.1743169  -0.2157770   0.0118913
   18   0.0993332   0.0331251  -0.0741714   0.0357969   0.0873759   0.1371865
   19   0.0063739  -0.1389381  -0.0269264   0.1857711  -0.1605733   0.0623212
   20  -0.0000000  -0.0000000  -0.0000000   0.0000000  -0.0000000  -0.0000000
   21  -0.0418432  -0.1361545   0.0393334   0.0349178  -0.1066227  -0.0454283
   22   0.1081914   0.3647825  -0.1076925  -0.1012865   0.3124400   0.1390712
   23   0.0338257   0.0510973   0.0919331   0.1823425   0.0223715   0.0120693
   24   0.0213866   0.0192115  -0.0413698  -0.0209856  -0.0698698   0.0121130
   25   0.0000000  -0.0000000  -0.0000000  -0.0000000  -0.0000000  -0.0000000
   26  -0.0329538  -0.1185792  -0.0735486  -0.0986545   0.0308555   0.0242589
   27   0.0850655   0.3177871   0.2015154   0.2834009  -0.0913026  -0.0742107
   28  -0.0523736  -0.0712618   0.0396005   0.0214559  -0.1769257  -0.0796839
   29   0.0025146  -0.0261575   0.0659800  -0.0402304  -0.1260089  -0.0384982
   30  -0.0000000  -0.0000000   0.0000000  -0.0000000  -0.0000000  -0.0000000
   31   0.0179341  -0.0855219   0.0258024  -0.0514340   0.1339190  -0.0362390
   32   0.0072902  -0.0776360  -0.0449854   0.1213746  -0.0391715   0.0517104
   33   0.0179341   0.0855219  -0.0258024  -0.0514340   0.1339190   0.0362390
   34   0.0072902   0.0776360   0.0449854   0.1213746  -0.0391715  -0.0517104
   35   0.1245991  -0.0029461  -0.0691651   0.0446952   0.0134009   0.0976007
   36  -0.3294042   0.0094488   0.1839743  -0.1376669  -0.0445055  -0.3045156
   37   0.0537655   0.0168443  -0.1187195  -0.0993097  -0.1160978  -0.0566579
   38  -0.0644928  -0.0206301   0.0530500   0.0868179  -0.0094416   0.1253576
   39  -0.0000000  -0.0000000   0.0000000   0.0000000  -0.0000000  -0.0000000
   40   0.1170885   0.0107545  -0.1098454  -0.0622993  -0.0624112  -0.0866874
[...]
   9  C 2   py       0.19227   0.12215   0.04075  -0.10144   0.23290   0.00165
  10  C 2   pz       0.00000   0.00000   0.00000  -0.00000   0.00000   0.00000
  11  C 3   s       -0.05119   0.01933  -0.03092  -0.01710   0.05397   0.02136
  12  C 3   s        0.16606  -0.05306   0.10116   0.06640  -0.18439  -0.07835
  13  C 3   px      -0.04775  -0.14697   0.16158  -0.10396   0.12943   0.11444
  14  C 3   py       0.19928   0.07204   0.12122   0.29369   0.05384  -0.02480
  15  C 3   pz       0.00000   0.00000   0.00000  -0.00000   0.00000   0.00000
  16  C 4   s        0.04302  -0.03570   0.00838   0.05277  -0.04846   0.01545
  17  C 4   s       -0.12465   0.11881  -0.03147  -0.17844   0.17012  -0.05148
  18  C 4   px      -0.16539  -0.11214   0.14377  -0.13867  -0.06952   0.00080
  19  C 4   py       0.00365  -0.06568  -0.19223  -0.14029  -0.18757   0.00808
  20  C 4   pz      -0.00000  -0.00000  -0.00000  -0.00000   0.00000   0.00000
  21  C 5   s       -0.01626  -0.01688  -0.01081  -0.02939   0.04369  -0.02443
  22  C 5   s        0.05777   0.06408   0.03557   0.10349  -0.15303   0.08282
  23  C 5   px       0.07912  -0.15393  -0.23227  -0.05269  -0.06367   0.05698
  24  C 5   py      -0.19227  -0.12215   0.04075  -0.10144   0.23290  -0.00165
  25  C 5   pz      -0.00000  -0.00000   0.00000  -0.00000  -0.00000   0.00000
  26  C 6   s       -0.05119   0.01933   0.03092   0.01710  -0.05397   0.02136
  27  C 6   s        0.16606  -0.05306  -0.10116  -0.06640   0.18439  -0.07835
  28  C 6   px       0.04775   0.14697   0.16158  -0.10396   0.12943  -0.11444
  29  C 6   py      -0.19928  -0.07204   0.12122   0.29369   0.05384   0.02480
  30  C 6   pz      -0.00000  -0.00000   0.00000  -0.00000  -0.00000  -0.00000
  31  H 1   s        0.10675   0.11785  -0.04145  -0.12631   0.21523   0.01816
  32  H 2   s        0.15432   0.08707   0.02517   0.25946  -0.09993  -0.09668
  33  H 3   s        0.10675   0.11785   0.04145   0.12631  -0.21523   0.01816
  34  H 4   s        0.15432   0.08707  -0.02517  -0.25946   0.09993  -0.09668
  35  C 7   s       -0.05689   0.05316   0.01472  -0.00756   0.00617  -0.01858
  36  C 7   s        0.17674  -0.16838  -0.04308   0.02645  -0.01119   0.04626
  37  C 7   px       0.03662   0.17611  -0.07735   0.08990   0.20089  -0.05580
  38  C 7   py      -0.06845   0.10607  -0.19857  -0.01053   0.03544   0.29596
  39  C 7   pz       0.00000  -0.00000   0.00000  -0.00000   0.00000   0.00000
  40  C 8   s        0.06059  -0.02416  -0.02064   0.01110  -0.01029   0.00079
  41  C 8   s       -0.18940   0.08744   0.07545  -0.03292   0.04465  -0.02156
  42  C 8   px       0.07349  -0.00073  -0.20622   0.10136   0.01206   0.33395
  43  C 8   py      -0.06450   0.21827  -0.03159   0.14060   0.19356  -0.05726
  44  C 8   pz      -0.00000   0.00000   0.00000  -0.00000  -0.00000  -0.00000
  45  H 5   s        0.09871  -0.14730   0.11997   0.01498  -0.07141  -0.17663
  46  H 6   s       -0.09888   0.00889   0.15902  -0.10243  -0.01707  -0.23357
  47  H 7   s       -0.08557   0.17806  -0.02096   0.12837   0.14288  -0.00936
  48  C 9   s       -0.05689   0.05316  -0.01472   0.00756  -0.00617  -0.01858
  49  C 9   s        0.17674  -0.16838   0.04308  -0.02645   0.01119   0.04626
  50  C 9   px      -0.03662  -0.17611  -0.07735   0.08990   0.20089   0.05580
  51  C 9   py       0.06845  -0.10607  -0.19857  -0.01053   0.03544  -0.29596
  52  C 9   pz      -0.00000   0.00000   0.00000  -0.00000   0.00000  -0.00000
  53  C 10  s        0.06059  -0.02416   0.02064  -0.01110   0.01029   0.00079
  54  C 10  s       -0.18940   0.08744  -0.07545   0.03292  -0.04465  -0.02156
  55  C 10  px      -0.07349   0.00073  -0.20622   0.10136   0.01206  -0.33395
  56  C 10  py       0.06450  -0.21827  -0.03159   0.14060   0.19356   0.05726
  57  C 10  pz      -0.00000  -0.00000  -0.00000   0.00000   0.00000   0.00000
  58  H 8   s        0.09871  -0.14730  -0.11997  -0.01498   0.07141  -0.17663
  59  H 9   s       -0.09888   0.00889  -0.15902   0.10243   0.01707  -0.23357
  60  H 10  s       -0.08557   0.17806   0.02096  -0.12837  -0.14288  -0.00936
                        25        26        27        28        29        30
 eigenvalues:         -0.572    -0.556    -0.538    -0.525    -0.496    -0.495
   1  C 1   s        0.00052  -0.00705   0.02461  -0.00000  -0.01523  -0.00112
   2  C 1   s       -0.00483   0.02693  -0.08686   0.00000   0.06661  -0.00272
   3  C 1   px      -0.14181   0.12447   0.01291  -0.00000   0.24926  -0.17766
   4  C 1   py       0.05503  -0.12955   0.10303   0.00000   0.07315   0.25476
   5  C 1   pz      -0.00000   0.00000   0.00000   0.33419   0.00000  -0.00000
   6  C 2   s       -0.02572   0.01252   0.00481   0.00000   0.00727  -0.00119
   7  C 2   s        0.07953  -0.04666  -0.02726  -0.00000  -0.02347  -0.00325
   8  C 2   px      -0.11799  -0.22313  -0.15038   0.00000   0.00967   0.19570
   9  C 2   py      -0.31365  -0.00323  -0.15548  -0.00000   0.05508  -0.23178
  10  C 2   pz      -0.00000   0.00000   0.00000   0.30256   0.00000  -0.00000
  11  C 3   s       -0.00618  -0.01064  -0.00188  -0.00000  -0.01102   0.00298
  12  C 3   s        0.01528   0.03339   0.00451   0.00000   0.03690   0.00142
  13  C 3   px       0.21025   0.20337   0.16419  -0.00000   0.03661  -0.17130
  14  C 3   py      -0.15625   0.05201   0.07868   0.00000  -0.12594   0.22335
  15  C 3   pz      -0.00000   0.00000   0.00000   0.30355   0.00000  -0.00000
  16  C 4   s       -0.00052   0.00705   0.02461   0.00000   0.01523  -0.00112
  17  C 4   s        0.00483  -0.02693  -0.08686  -0.00000  -0.06661  -0.00272
  18  C 4   px      -0.14181   0.12447  -0.01291   0.00000   0.24926   0.17766
  19  C 4   py       0.05503  -0.12955  -0.10303  -0.00000   0.07315  -0.25476
  20  C 4   pz      -0.00000   0.00000  -0.00000   0.33419  -0.00000  -0.00000
  21  C 5   s        0.02572  -0.01252   0.00481  -0.00000  -0.00727  -0.00119
  22  C 5   s       -0.07953   0.04666  -0.02726  -0.00000   0.02347  -0.00325
  23  C 5   px      -0.11799  -0.22313   0.15038  -0.00000   0.00967  -0.19570
  24  C 5   py      -0.31365  -0.00323   0.15548   0.00000   0.05508   0.23178
  25  C 5   pz      -0.00000   0.00000  -0.00000   0.30256  -0.00000  -0.00000
  26  C 6   s        0.00618   0.01064  -0.00188   0.00000   0.01102   0.00298
  27  C 6   s       -0.01528  -0.03339   0.00451  -0.00000  -0.03690   0.00142
  28  C 6   px       0.21025   0.20337  -0.16419   0.00000   0.03661   0.17130
  29  C 6   py      -0.15625   0.05201  -0.07868  -0.00000  -0.12594  -0.22335
  30  C 6   pz      -0.00000  -0.00000  -0.00000   0.30355   0.00000  -0.00000
  31  H 1   s       -0.22212  -0.07179  -0.16746  -0.00000   0.02475  -0.15997
  32  H 2   s       -0.18661  -0.06095   0.00095   0.00000  -0.05005   0.28554
  33  H 3   s        0.22212   0.07179  -0.16746  -0.00000  -0.02475  -0.15997
  34  H 4   s        0.18661   0.06095   0.00095   0.00000   0.05005   0.28554
  35  C 7   s        0.00486  -0.00044  -0.02352   0.00000  -0.00381   0.00952
  36  C 7   s       -0.00836  -0.01889   0.09512  -0.00000   0.01278  -0.04659
  37  C 7   px       0.14471  -0.14562   0.10276  -0.00000  -0.17474  -0.14931
  38  C 7   py      -0.02302   0.25720  -0.16248   0.00000  -0.19092   0.03758
  39  C 7   pz       0.00000  -0.00000  -0.00000   0.15898  -0.00000  -0.00000
  40  C 8   s       -0.00585  -0.01448   0.00876   0.00000   0.00201  -0.00414
  41  C 8   s        0.02968   0.03113  -0.02031  -0.00000  -0.00812   0.00658
  42  C 8   px      -0.03726   0.24638   0.10996   0.00000   0.20017   0.08376
  43  C 8   py       0.14921  -0.14291   0.28729  -0.00000   0.19878  -0.10388
  44  C 8   pz       0.00000   0.00000  -0.00000   0.07767  -0.00000  -0.00000
  45  H 5   s       -0.00211  -0.17416   0.15485  -0.00000   0.22971  -0.03278
  46  H 6   s        0.01769  -0.15071  -0.15056  -0.00000  -0.23144  -0.05471
  47  H 7   s        0.09650  -0.06774   0.25195  -0.00000   0.23512  -0.02932
  48  C 9   s       -0.00486   0.00044  -0.02352   0.00000   0.00381   0.00952
  49  C 9   s        0.00836   0.01889   0.09512  -0.00000  -0.01278  -0.04659
  50  C 9   px       0.14471  -0.14562  -0.10276   0.00000  -0.17474   0.14931
  51  C 9   py      -0.02302   0.25720   0.16248  -0.00000  -0.19092  -0.03758
  52  C 9   pz      -0.00000   0.00000   0.00000   0.15898   0.00000  -0.00000
  53  C 10  s        0.00585   0.01448   0.00876  -0.00000  -0.00201  -0.00414
  54  C 10  s       -0.02968  -0.03113  -0.02031   0.00000   0.00812   0.00658
  55  C 10  px      -0.03726   0.24638  -0.10996  -0.00000   0.20017  -0.08376
  56  C 10  py       0.14921  -0.14291  -0.28729   0.00000   0.19878   0.10388
  57  C 10  pz      -0.00000   0.00000   0.00000   0.07767   0.00000  -0.00000
  58  H 8   s        0.00211   0.17416   0.15485  -0.00000  -0.22971  -0.03278
  59  H 9   s       -0.01769   0.15071  -0.15056  -0.00000   0.23144  -0.05471
  60  H 10  s       -0.09650   0.06774   0.25195  -0.00000  -0.23512  -0.02932
                        31        32        33        34        35        36
 eigenvalues:         -0.478    -0.451    -0.396    -0.393    -0.310    -0.139
   1  C 1   s        0.01376   0.00000  -0.00000   0.00000  -0.00000   0.00000
   2  C 1   s       -0.06757  -0.00000  -0.00000  -0.00000   0.00000  -0.00000
   3  C 1   px      -0.22978  -0.00000  -0.00000  -0.00000  -0.00000   0.00000
   4  C 1   py      -0.16719   0.00000   0.00000   0.00000   0.00000   0.00000
   5  C 1   pz       0.00000   0.35782   0.01492   0.00682  -0.37818  -0.47154
   6  C 2   s        0.00281  -0.00000  -0.00000  -0.00000   0.00000  -0.00000
   7  C 2   s       -0.00384   0.00000   0.00000   0.00000  -0.00000   0.00000
   8  C 2   px       0.17963  -0.00000  -0.00000  -0.00000  -0.00000  -0.00000
   9  C 2   py       0.12008  -0.00000  -0.00000   0.00000   0.00000   0.00000
  10  C 2   pz       0.00000   0.13194   0.46730  -0.17829  -0.21207   0.21034
  11  C 3   s        0.00178   0.00000  -0.00000   0.00000  -0.00000   0.00000
  12  C 3   s       -0.00795  -0.00000  -0.00000  -0.00000   0.00000  -0.00000
  13  C 3   px      -0.17630   0.00000  -0.00000  -0.00000  -0.00000   0.00000
  14  C 3   py      -0.18618   0.00000   0.00000   0.00000  -0.00000  -0.00000
  15  C 3   pz       0.00000  -0.14394   0.45309  -0.16962   0.23834   0.30142
  16  C 4   s        0.01376  -0.00000  -0.00000  -0.00000   0.00000  -0.00000
  17  C 4   s       -0.06757   0.00000   0.00000   0.00000  -0.00000   0.00000
  18  C 4   px       0.22978  -0.00000  -0.00000  -0.00000   0.00000  -0.00000
  19  C 4   py       0.16719   0.00000   0.00000   0.00000  -0.00000   0.00000
  20  C 4   pz      -0.00000  -0.35782  -0.01492   0.00682   0.37818  -0.47154
  21  C 5   s        0.00281   0.00000   0.00000  -0.00000   0.00000   0.00000
  22  C 5   s       -0.00384  -0.00000  -0.00000   0.00000  -0.00000  -0.00000
  23  C 5   px      -0.17963   0.00000   0.00000   0.00000  -0.00000   0.00000
  24  C 5   py      -0.12008  -0.00000  -0.00000  -0.00000  -0.00000  -0.00000
  25  C 5   pz      -0.00000  -0.13194  -0.46730  -0.17829   0.21207   0.21034
  26  C 6   s        0.00178  -0.00000   0.00000  -0.00000  -0.00000  -0.00000
  27  C 6   s       -0.00795   0.00000   0.00000   0.00000   0.00000   0.00000
  28  C 6   px       0.17630  -0.00000  -0.00000  -0.00000   0.00000  -0.00000
  29  C 6   py       0.18618  -0.00000   0.00000   0.00000   0.00000  -0.00000
  30  C 6   pz      -0.00000   0.14394  -0.45309  -0.16962  -0.23834   0.30142
  31  H 1   s        0.19132  -0.00000  -0.00000  -0.00000   0.00000   0.00000
  32  H 2   s        0.00542  -0.00000   0.00000  -0.00000   0.00000   0.00000
  33  H 3   s        0.19132  -0.00000   0.00000  -0.00000   0.00000  -0.00000
  34  H 4   s        0.00542  -0.00000  -0.00000  -0.00000   0.00000  -0.00000
  35  C 7   s        0.01358  -0.00000  -0.00000   0.00000   0.00000   0.00000
  36  C 7   s       -0.05713   0.00000   0.00000  -0.00000   0.00000  -0.00000
  37  C 7   px      -0.23423   0.00000   0.00000   0.00000   0.00000  -0.00000
  38  C 7   py      -0.14635   0.00000   0.00000  -0.00000  -0.00000  -0.00000
  39  C 7   pz      -0.00000  -0.38155  -0.00176   0.44737  -0.26410  -0.21430
  40  C 8   s        0.00041  -0.00000  -0.00000  -0.00000  -0.00000  -0.00000
  41  C 8   s       -0.00579   0.00000   0.00000   0.00000   0.00000   0.00000
  42  C 8   px       0.14652  -0.00000  -0.00000  -0.00000  -0.00000   0.00000
  43  C 8   py       0.09155  -0.00000  -0.00000  -0.00000   0.00000  -0.00000
  44  C 8   pz      -0.00000  -0.24719   0.00972   0.38409  -0.37262   0.45087
  45  H 5   s        0.18972  -0.00000  -0.00000  -0.00000   0.00000  -0.00000
  46  H 6   s       -0.16835   0.00000   0.00000   0.00000   0.00000   0.00000
  47  H 7   s        0.14637  -0.00000  -0.00000  -0.00000  -0.00000   0.00000
  48  C 9   s        0.01358  -0.00000  -0.00000   0.00000   0.00000   0.00000
  49  C 9   s       -0.05713   0.00000   0.00000   0.00000  -0.00000  -0.00000
  50  C 9   px       0.23423   0.00000  -0.00000   0.00000   0.00000   0.00000
  51  C 9   py       0.14635  -0.00000   0.00000  -0.00000  -0.00000  -0.00000
  52  C 9   pz       0.00000   0.38155   0.00176   0.44737   0.26410  -0.21430
  53  C 10  s        0.00041  -0.00000  -0.00000  -0.00000   0.00000   0.00000
  54  C 10  s       -0.00579  -0.00000  -0.00000  -0.00000  -0.00000  -0.00000
  55  C 10  px      -0.14652  -0.00000  -0.00000  -0.00000  -0.00000  -0.00000
  56  C 10  py      -0.09155  -0.00000  -0.00000  -0.00000  -0.00000  -0.00000
  57  C 10  pz       0.00000   0.24719  -0.00972   0.38409   0.37262   0.45087
  58  H 8   s        0.18972  -0.00000  -0.00000  -0.00000  -0.00000   0.00000
  59  H 9   s       -0.16835  -0.00000   0.00000   0.00000   0.00000   0.00000
  60  H 10  s        0.14637  -0.00000  -0.00000  -0.00000  -0.00000  -0.00000
                        37        38        39
 eigenvalues:         -0.105    -0.069    -0.010
   1  C 1   s       -0.00000  -0.00000  -0.00000
   2  C 1   s        0.00000   0.00000   0.00000
   3  C 1   px      -0.00000   0.00000   0.00000
   4  C 1   py       0.00000  -0.00000  -0.00000
   5  C 1   pz      -0.05117  -0.03816   0.47273
   6  C 2   s        0.00000   0.00000  -0.00000
   7  C 2   s       -0.00000  -0.00000   0.00000
   8  C 2   px      -0.00000  -0.00000  -0.00000
   9  C 2   py      -0.00000  -0.00000   0.00000
  10  C 2   pz       0.59260   0.22441  -0.16223
  11  C 3   s       -0.00000   0.00000   0.00000
  12  C 3   s        0.00000  -0.00000  -0.00000
  13  C 3   px      -0.00000   0.00000   0.00000
  14  C 3   py       0.00000   0.00000  -0.00000
  15  C 3   pz      -0.54327  -0.21616  -0.19547
  16  C 4   s        0.00000  -0.00000  -0.00000
  17  C 4   s       -0.00000   0.00000   0.00000
  18  C 4   px       0.00000  -0.00000   0.00000
  19  C 4   py       0.00000  -0.00000  -0.00000
  20  C 4   pz      -0.05117   0.03816   0.47273
  21  C 5   s        0.00000   0.00000   0.00000
  22  C 5   s       -0.00000  -0.00000  -0.00000
  23  C 5   px      -0.00000   0.00000   0.00000
  24  C 5   py      -0.00000  -0.00000  -0.00000
  25  C 5   pz       0.59260  -0.22441  -0.16223
  26  C 6   s        0.00000   0.00000  -0.00000
  27  C 6   s       -0.00000  -0.00000   0.00000
  28  C 6   px       0.00000  -0.00000   0.00000
  29  C 6   py       0.00000  -0.00000  -0.00000
  30  C 6   pz      -0.54327   0.21616  -0.19547
  31  H 1   s        0.00000   0.00000   0.00000
  32  H 2   s        0.00000   0.00000   0.00000
  33  H 3   s        0.00000   0.00000   0.00000
  34  H 4   s       -0.00000  -0.00000  -0.00000
  35  C 7   s       -0.00000   0.00000  -0.00000
  36  C 7   s        0.00000  -0.00000   0.00000
  37  C 7   px       0.00000  -0.00000   0.00000
  38  C 7   py      -0.00000  -0.00000  -0.00000
  39  C 7   pz       0.00084   0.50800  -0.52453
  40  C 8   s        0.00000  -0.00000  -0.00000
  41  C 8   s       -0.00000   0.00000   0.00000
  42  C 8   px      -0.00000   0.00000  -0.00000
  43  C 8   py      -0.00000  -0.00000  -0.00000
  44  C 8   pz       0.03053  -0.55420   0.41706
  45  H 5   s       -0.00000  -0.00000  -0.00000
  46  H 6   s        0.00000   0.00000   0.00000
  47  H 7   s        0.00000   0.00000   0.00000
  48  C 9   s        0.00000   0.00000   0.00000
  49  C 9   s       -0.00000  -0.00000  -0.00000
  50  C 9   px       0.00000   0.00000   0.00000
  51  C 9   py      -0.00000   0.00000   0.00000
  52  C 9   pz       0.00084  -0.50800  -0.52453
  53  C 10  s        0.00000   0.00000   0.00000
  54  C 10  s       -0.00000   0.00000  -0.00000
  55  C 10  px      -0.00000  -0.00000  -0.00000
  56  C 10  py      -0.00000  -0.00000  -0.00000
  57  C 10  pz       0.03053   0.55420   0.41706
  58  H 8   s       -0.00000   0.00000   0.00000
  59  H 9   s        0.00000   0.00000   0.00000
  60  H 10  s        0.00000  -0.00000  -0.00000

          Ground-State Mulliken Net Atomic Charges

     Atom                 Charge (a.u.)    Spin (a.u.)
  --------------------------------------------------------
      1 C                     0.056248       0.214259
      2 C                    -0.041705       0.013231
      3 C                    -0.039871       0.038939
      4 C                     0.056248       0.214259
      5 C                    -0.041705       0.013231
      6 C                    -0.039871       0.038939
      7 H                     0.129092      -0.000999
      8 H                     0.123402      -0.002062
      9 H                     0.129092      -0.000999
     10 H                     0.123402      -0.002062
     11 C                    -0.036416      -0.031220
     12 C                    -0.081655       0.293057
     13 H                     0.127855       0.000855
     14 H                     0.141403      -0.013239
     15 H                     0.121647      -0.012822
     16 C                    -0.036416      -0.031220
     17 C                    -0.081655       0.293057
     18 H                     0.127855       0.000855
     19 H                     0.141403      -0.013239
     20 H                     0.121647      -0.012822
  --------------------------------------------------------
  Sum of atomic charges =     1.000000
  Sum of spin   charges =     1.000000

 -----------------------------------------------------------------
                    Cartesian Multipole Moments
 -----------------------------------------------------------------
    Charge (ESU x 10^10)
                 4.8032
    Dipole Moment (Debye)
         X      -0.0000      Y       0.0000      Z       0.0000
       Tot       0.0000
    Quadrupole Moments (Debye-Ang)
        XX     -10.5855     XY      -0.9173     YY     -43.0487
        XZ       0.0000     YZ      -0.0000     ZZ     -56.4687
    Octopole Moments (Debye-Ang^2)
       XXX      -0.0000    XXY       0.0000    XYY      -0.0000
       YYY      -0.0000    XXZ       0.0000    XYZ      -0.0000
       YYZ      -0.0000    XZZ      -0.0000    YZZ       0.0000
       ZZZ       0.0000
    Hexadecapole Moments (Debye-Ang^3)
      XXXX   -1168.9814   XXXY     -22.4420   XXYY    -323.1672
      XYYY       5.5963   YYYY    -297.9341   XXXZ       0.0000
      XXYZ      -0.0000   XYYZ      -0.0000   YYYZ       0.0000
      XXZZ    -340.3631   XYZZ      -0.4795   YYZZ     -70.1136
      XZZZ      -0.0000   YZZZ       0.0000   ZZZZ     -45.4750
 -----------------------------------------------------------------
 Total job time:  2.72s(wall), 2.71s(cpu) 
 Sun Sep 19 10:15:00 2021

        *************************************************************
        *                                                           *
        *  Thank you very much for using Q-Chem.  Have a nice day.  *
        *                                                           *
        *************************************************************


