                  Welcome to Q-Chem
     A Quantum Leap Into The Future Of Chemistry


 Q-Chem 5.4 (devel), Q-Chem, Inc., Pleasanton, CA (2021)

 E. Epifanovsky,  A. T. B. Gilbert,  Xintian Feng,  Joonho Lee,  Yuezhi Mao,  
 N. Mardirossian,  P. Pokhilko,  A. White,  M. Wormit,  M. P. Coons,  
 A. L. Dempwolff,  Zhengting Gan,  D. Hait,  P. R. Horn,  L. D. Jacobson,  
 I. Kaliman,  J. Kussmann,  A. W. Lange,  Ka Un Lao,  D. S. Levine,  Jie Liu,  
 S. C. McKenzie,  A. F. Morrison,  K. Nanda,  F. Plasser,  D. R. Rehn,  
 M. L. Vidal,  Zhi-Qiang You,  Ying Zhu,  B. Alam,  B. Albrecht,  
 A. Aldossary,  E. Alguire,  J. H. Andersen,  D. Barton,  K. Begam,  A. Behn,  
 Y. A. Bernard,  E. J. Berquist,  H. Burton,  A. Carreras,  K. Carter-Fenk,  
 R. Chakraborty,  A. D. Chien,  K. D. Closser,  V. Cofer-Shabica,  
 S. Dasgupta,  Jia Deng,  M. de Wergifosse,  M. Diedenhofen,  Hainam Do,  
 S. Ehlert,  Po-Tung Fang,  S. Fatehi,  Qingguo Feng,  T. Friedhoff,  
 J. Gayvert,  Qinghui Ge,  G. Gidofalvi,  M. Goldey,  J. Gomes,  
 C. Gonzalez-Espinoza,  S. Gulania,  A. Gunina,  M. W. D. Hanson-Heine,  
 P. H. P. Harbach,  A. W. Hauser,  M. F. Herbst,  M. Hernandez Vera,  
 M. Hodecker,  Z. C. Holden,  S. Houck,  Xunkun Huang,  Kerwin Hui,  
 B. C. Huynh,  M. Ivanov,  Hyunjun Ji,  Hanjie Jiang,  B. Kaduk,  S. Kaehler,  
 K. Khistyaev,  Jaehoon Kim,  P. Klunzinger,  Z. Koczor-Benda,  
 Joong Hoon Koh,  D. Kosenkov,  L. Koulias,  T. Kowalczyk,  C. M. Krauter,  
 K. Kue,  A. Kunitsa,  T. Kus,  A. Landau,  K. V. Lawler,  D. Lefrancois,  
 S. Lehtola,  Rain Li,  Yi-Pei Li,  Jiashu Liang,  M. Liebenthal,  
 Hung-Hsuan Lin,  You-Sheng Lin,  Fenglai Liu,  Kuan-Yu Liu,  
 M. Loipersberger,  A. Luenser,  A. Manjanath,  P. Manohar,  E. Mansoor,  
 S. F. Manzer,  Shan-Ping Mao,  A. V. Marenich,  T. Markovich,  S. Mason,  
 S. A. Maurer,  P. F. McLaughlin,  M. F. S. J. Menger,  J.-M. Mewes,  
 S. A. Mewes,  P. Morgante,  J. W. Mullinax,  K. J. Oosterbaan,  G. Paran,  
 Alexander C. Paul,  Suranjan K. Paul,  F. Pavosevic,  Zheng Pei,  S. Prager,  
 E. I. Proynov,  E. Ramos,  B. Rana,  A. E. Rask,  A. Rettig,  R. M. Richard,  
 F. Rob,  E. Rossomme,  T. Scheele,  M. Scheurer,  M. Schneider,  
 N. Sergueev,  S. M. Sharada,  W. Skomorowski,  D. W. Small,  C. J. Stein,  
 Yu-Chuan Su,  E. J. Sundstrom,  Zhen Tao,  J. Thirman,  T. Tsuchimochi,  
 N. M. Tubman,  S. P. Veccham,  O. Vydrov,  J. Wenzel,  J. Witte,  A. Yamada,  
 Kun Yao,  S. Yeganeh,  S. R. Yost,  A. Zech,  Igor Ying Zhang,  Xing Zhang,  
 Yu Zhang,  D. Zuev,  A. Aspuru-Guzik,  A. T. Bell,  N. A. Besley,  
 K. B. Bravaya,  B. R. Brooks,  D. Casanova,  Jeng-Da Chai,  S. Coriani,  
 C. J. Cramer,  A. E. DePrince, III,  R. A. DiStasio Jr.,  A. Dreuw,  
 B. D. Dunietz,  T. R. Furlani,  W. A. Goddard III,  S. Grimme,  
 S. Hammes-Schiffer,  T. Head-Gordon,  W. J. Hehre,  Chao-Ping Hsu,  
 T.-C. Jagau,  Yousung Jung,  A. Klamt,  Jing Kong,  D. S. Lambrecht,  
 WanZhen Liang,  N. J. Mayhall,  C. W. McCurdy,  J. B. Neaton,  
 C. Ochsenfeld,  J. A. Parkhill,  R. Peverati,  V. A. Rassolov,  Yihan Shao,  
 L. V. Slipchenko,  T. Stauch,  R. P. Steele,  J. E. Subotnik,  
 A. J. W. Thom,  A. Tkatchenko,  D. G. Truhlar,  T. Van Voorhis,  
 T. A. Wesolowski,  K. B. Whaley,  H. L. Woodcock III,  P. M. Zimmerman,  
 S. Faraji,  P. M. W. Gill,  M. Head-Gordon,  J. M. Herbert,  A. I. Krylov

 Additional authors for Version 5.4.1: 
 S. Kotaru,  Shaozhi Li,  Xiangyuan Li,  F. Matz,  A. Molle,  Haisheng Ren,  
 Yingli Su,  Hung-Yi Tsai,  C. Utku,  Fang Wang

 Contributors to earlier versions of Q-Chem not listed above: 
 R. D. Adamson,  B. Austin,  R. Baer,  J. Baker,  G. J. O. Beran,  
 K. Brandhorst,  S. T. Brown,  E. F. C. Byrd,  A. K. Chakraborty,  
 G. K. L. Chan,  Chun-Min Chang,  Yunqing Chen,  C.-L. Cheng,  
 Siu Hung Chien,  D. M. Chipman,  D. L. Crittenden,  H. Dachsel,  
 R. J. Doerksen,  A. D. Dutoi,  R. G. Edgar,  J. Fosso-Tande,  
 L. Fusti-Molnar,  D. Ghosh,  A. Ghysels,  A. Golubeva-Zadorozhnaya,  
 J. Gonthier,  M. S. Gordon,  S. R. Gwaltney,  G. Hawkins,  J. E. Herr,  
 A. Heyden,  S. Hirata,  E. G. Hohenstein,  G. Kedziora,  F. J. Keil,  
 C. Kelley,  Jihan Kim,  R. A. King,  R. Z. Khaliullin,  P. P. Korambath,  
 W. Kurlancheek,  A. Laurent,  A. M. Lee,  M. S. Lee,  S. V. Levchenko,  
 Ching Yeh Lin,  D. Liotard,  E. Livshits,  R. C. Lochan,  I. Lotan,  
 L. A. Martinez-Martinez,  P. E. Maslen,  N. Nair,  D. P. O'Neill,  
 D. Neuhauser,  E. Neuscamman,  C. M. Oana,  R. Olivares-Amaya,  R. Olson,  
 T. M. Perrine,  B. Peters,  P. A. Pieniazek,  A. Prociuk,  Y. M. Rhee,  
 J. Ritchie,  M. A. Rohrdanz,  E. Rosta,  N. J. Russ,  H. F. Schaefer III,  
 M. W. Schmidt,  N. E. Schultz,  S. Sharma,  N. Shenvi,  C. D. Sherrill,  
 A. C. Simmonett,  A. Sodt,  T. Stein,  D. Stuck,  K. S. Thanthiriwatte,  
 V. Vanovschi,  L. Vogt,  Tao Wang,  A. Warshel,  M. A. Watson,  
 C. F. Williams,  Q. Wu,  X. Xu,  Jun Yang,  W. Zhang,  Yan Zhao

 Please cite Q-Chem as follows:
 Y. Shao et al., Mol. Phys. 113, 184-215 (2015)
 DOI: 10.1080/00268976.2014.952696

 Q-Chem 5.4.1 for Intel X86 EM64T Linux

 Parts of Q-Chem use Armadillo 9.900.5 (Nocturnal Misbehaviour).
 http://arma.sourceforge.net/

Compilation information
-----------------------

 SVN revision             | 37731
 SVN branch               | trunk
 Last SVN revision        | 37729
 Last SVN author          | epif
 Hostname                 | osmium
 User                     | eric
 System                   | Linux-5.14.3-arch1-1
 Processor                | x86_64
 Compiler                 | GNU
 C compiler version       | 10.3.0
 CXX compiler version     | 10.3.0
 Fortran compiler version | 10.3.0
 Configuration time       | 2021-09-18 20:48:41


 Q-Chem begins on Sun Sep 19 10:15:04 2021  

 Host: osmium
0

     Scratch files written to /tmp/qchem/qchem2851233//
 Processing $rem in /home/eric/data/opt/apps/qchem/archive/r37729-g10.3.0-openblas/config/preferences:
 Processing $rem in /home/eric/.qchemrc:
 Symmetry disabled for AIMD jobs.

 Checking the input file for inconsistencies... 	...done.

--------------------------------------------------------------
User input:
--------------------------------------------------------------
$comment
 Divinylbenzene, Born-Oppenheimer molecular dynamics, RB3LYP/STO-3G
$end

$rem
 jobtype = aimd
 method = b3lyp
 basis = sto-3g
 aimd_init_veloc = thermal
 aimd_temp = 298
 time_step = 25
 aimd_steps = 35
 gui = 2
$end

$molecule
 0 1
 C                  0.27867948   -1.36683162    0.00000000
 C                  1.32303041   -0.44173575    0.00000000
 C                  1.04434506    0.92484978    0.00000000
 C                 -0.27867948    1.36683162    0.00000000
 C                 -1.32303041    0.44173575    0.00000000
 C                 -1.04434506   -0.92484978    0.00000000
 H                  2.36595443   -0.79037726    0.00000000
 H                  1.86746094    1.65407997    0.00000000
 H                 -2.36595443    0.79037726    0.00000000
 H                 -1.86746094   -1.65407997    0.00000000
 C                 -0.58659169    2.87589931    0.00000000
 C                  0.36350188    3.80076420    0.00000000
 H                 -1.65647768    3.12394312    0.00000000
 H                  0.14429560    4.87693235    0.00000000
 H                  1.43338788    3.55272039    0.00000000
 C                  0.58659169   -2.87589931    0.00000000
 C                 -0.36350188   -3.80076420    0.00000000
 H                  1.65647768   -3.12394312    0.00000000
 H                 -0.14429560   -4.87693235    0.00000000
 H                 -1.43338788   -3.55272039    0.00000000
$end
--------------------------------------------------------------
 ----------------------------------------------------------------
             Standard Nuclear Orientation (Angstroms)
    I     Atom           X                Y                Z
 ----------------------------------------------------------------
    1      C       0.2786794800    -1.3668316200     0.0000000000
    2      C       1.3230304100    -0.4417357500     0.0000000000
    3      C       1.0443450600     0.9248497800     0.0000000000
    4      C      -0.2786794800     1.3668316200     0.0000000000
    5      C      -1.3230304100     0.4417357500     0.0000000000
    6      C      -1.0443450600    -0.9248497800     0.0000000000
    7      H       2.3659544300    -0.7903772600     0.0000000000
    8      H       1.8674609400     1.6540799700     0.0000000000
    9      H      -2.3659544300     0.7903772600     0.0000000000
   10      H      -1.8674609400    -1.6540799700     0.0000000000
   11      C      -0.5865916900     2.8758993100     0.0000000000
   12      C       0.3635018800     3.8007642000     0.0000000000
   13      H      -1.6564776800     3.1239431200     0.0000000000
   14      H       0.1442956000     4.8769323500     0.0000000000
   15      H       1.4333878800     3.5527203900     0.0000000000
   16      C       0.5865916900    -2.8758993100     0.0000000000
   17      C      -0.3635018800    -3.8007642000     0.0000000000
   18      H       1.6564776800    -3.1239431200     0.0000000000
   19      H      -0.1442956000    -4.8769323500     0.0000000000
   20      H      -1.4333878800    -3.5527203900     0.0000000000
 ----------------------------------------------------------------
 Nuclear Repulsion Energy =         450.00613820 hartrees
 There are       35 alpha and       35 beta electrons
 Requested basis set is STO-3G
 There are 30 shells and 60 basis functions

 Total QAlloc Memory Limit   2000 MB
 Mega-Array Size       188 MB
 MEM_STATIC part       192 MB
 A cutoff of  1.0D-11 yielded    402 shell pairs
 There are      1776 function pairs
 Smallest overlap matrix eigenvalue = 1.71E-01

 Scale SEOQF with 1.000000e-01/1.000000e-01/1.000000e+00

 Standard Electronic Orientation quadrupole field applied
 Nucleus-field energy     =     0.0000000315 hartrees
 Guess from superposition of atomic densities
 Warning:  Energy on first SCF cycle will be non-variational
 SAD guess density has 70.000000 electrons

 -----------------------------------------------------------------------
  General SCF calculation program by
  Eric Jon Sundstrom, Paul Horn, Yuezhi Mao, Dmitri Zuev, Alec White,
  David Stuck, Shaama M.S., Shane Yost, Joonho Lee, David Small,
  Daniel Levine, Susi Lehtola, Hugh Burton, Evgeny Epifanovsky,
  Bang C. Huynh
 -----------------------------------------------------------------------
 Exchange:     0.2000 Hartree-Fock + 0.0800 Slater + 0.7200 B88
 Correlation:  0.1900 VWN1RPA + 0.8100 LYP
 Using SG-1 standard quadrature grid
 A restricted SCF calculation will be
 performed using DIIS
 SCF converges when DIIS error is below 1.0e-08
 ---------------------------------------
  Cycle       Energy         DIIS error
 ---------------------------------------
    1    -381.9237707047      1.39e-01  
    2    -382.2936856172      3.10e-03  
    3    -382.2938864141      3.37e-03  
    4    -382.2996519775      1.12e-03  
    5    -382.3003055377      3.23e-04  
    6    -382.3003613745      3.18e-05  
    7    -382.3003619865      4.08e-06  
    8    -382.3003619980      8.07e-07  
    9    -382.3003619982      2.35e-07  
   10    -382.3003619983      1.01e-07  
   11    -382.3003619982      8.88e-09  Convergence criterion met
 ---------------------------------------
 SCF time:   CPU 3.33s  wall 4.00s 
 SCF   energy in the final basis set =     -382.3003619982
 Total energy in the final basis set =     -382.3003619982

 --------------------------------------------------------------

                    Orbital Energies (a.u.)
 --------------------------------------------------------------

 Alpha MOs
 -- Occupied --
-10.0179 -10.0179 -10.0076 -10.0076 -10.0067 -10.0066 -10.0056 -10.0055
 -9.9919  -9.9919  -0.8180  -0.7550  -0.7207  -0.7041  -0.6702  -0.5851
 -0.5606  -0.5319  -0.5121  -0.4619  -0.4385  -0.4104  -0.3996  -0.3971
 -0.3755  -0.3578  -0.3490  -0.3302  -0.3053  -0.2954  -0.2809  -0.2631
 -0.2160  -0.1975  -0.1601
 -- Virtual --
  0.0496   0.0907   0.1164   0.1815   0.2803   0.3192   0.3296   0.3654
  0.3703   0.4129   0.4160   0.4216   0.4457   0.4688   0.4959   0.5388
  0.5705   0.5868   0.6101   0.6265   0.6457   0.6928   0.7430   0.8062
  0.8160
 --------------------------------------------------------------

          Ground-State Mulliken Net Atomic Charges

     Atom                 Charge (a.u.)
  ----------------------------------------
      1 C                    -0.004104
      2 C                    -0.079244
      3 C                    -0.077213
      4 C                    -0.004104
      5 C                    -0.079244
      6 C                    -0.077213
      7 H                     0.078761
      8 H                     0.079722
      9 H                     0.078761
     10 H                     0.079722
     11 C                    -0.075269
     12 C                    -0.156380
     13 H                     0.078811
     14 H                     0.078363
     15 H                     0.076553
     16 C                    -0.075269
     17 C                    -0.156380
     18 H                     0.078811
     19 H                     0.078363
     20 H                     0.076553
  ----------------------------------------
  Sum of atomic charges =     0.000000

 -----------------------------------------------------------------
                    Cartesian Multipole Moments
 -----------------------------------------------------------------
    Charge (ESU x 10^10)
                 0.0000
    Dipole Moment (Debye)
         X      -0.0000      Y      -0.0000      Z      -0.0000
       Tot       0.0000
    Quadrupole Moments (Debye-Ang)
        XX     -50.1432     XY       0.1106     YY     -50.9644
        XZ      -0.0000     YZ      -0.0000     ZZ     -58.5742
    Octopole Moments (Debye-Ang^2)
       XXX      -0.0000    XXY       0.0000    XYY       0.0000
       YYY       0.0000    XXZ       0.0000    XYZ       0.0000
       YYZ      -0.0000    XZZ      -0.0000    YZZ      -0.0000
       ZZZ      -0.0000
    Hexadecapole Moments (Debye-Ang^3)
      XXXX    -329.5801   XXXY      -3.5183   XXYY    -358.4239
      XYYY      -0.5442   YYYY   -1811.1615   XXXZ      -0.0000
      XXYZ      -0.0000   XYYZ      -0.0000   YYYZ      -0.0000
      XXZZ     -72.1347   XYZZ       0.0483   YYZZ    -356.7119
      XZZZ      -0.0000   YZZZ      -0.0000   ZZZZ     -47.5456
 -----------------------------------------------------------------
 Calculating analytic gradient of the SCF energy
 Gradient of SCF Energy
            1           2           3           4           5           6
    1  -0.0086089  -0.0191352  -0.0196976   0.0086089   0.0191352   0.0196976
    2   0.0505534  -0.0062266   0.0013703  -0.0505534   0.0062266  -0.0013703
    3   0.0000000  -0.0000000   0.0000000  -0.0000000  -0.0000000   0.0000000
            7           8           9          10          11          12
    1   0.0012181   0.0014273  -0.0012181  -0.0014273   0.0045844  -0.0131554
    2   0.0002889   0.0033626  -0.0002889  -0.0033626   0.0393798  -0.0233232
    3   0.0000000   0.0000000   0.0000000  -0.0000000   0.0000000   0.0000000
           13          14          15          16          17          18
    1   0.0003256   0.0020084   0.0029378  -0.0045844   0.0131554  -0.0003256
    2  -0.0029878   0.0015249  -0.0002367  -0.0393798   0.0233232   0.0029878
    3   0.0000000  -0.0000000  -0.0000000  -0.0000000  -0.0000000   0.0000000
           19          20
    1  -0.0020084  -0.0029378
    2  -0.0015249   0.0002367
    3   0.0000000  -0.0000000
 Max gradient component =       5.055E-02
 RMS gradient           =       1.385E-02
 Gradient time:  CPU 1.06 s  wall 1.06 s
=======================================================
            AB INITIO MOLECULAR DYNAMICS
=======================================================
 Created directory /tmp/qchem/qchem2851233/AIMD
AIMD will take 35 BOMD steps Velocity Verlet integration
Time step = 25.00000 a.u. ( = 0.60472 fs)
Total simulation time requested = 21.165 fs
Integral threshold = 10**(-11)
SCF convergence threshold = 10**(-8)
Generating viewable xyz trajectory,
 file (in Angstroms) at AIMD/View.xyz
Choosing nuclear velocities from Maxwell-Boltzmann
Velocities sampled from Maxwell-Boltzmann at T = 298.0 K
sqrt(kT/m) and (vx,vy,vz) for each atom:
  1   2.0771e-04   3.54e-05  -2.69e-05   4.29e-05 
  2   2.0771e-04  -3.74e-04  -1.15e-04  -3.87e-04 
  3   2.0771e-04   1.70e-04  -9.89e-05   1.51e-04 
  4   2.0771e-04   3.24e-05  -2.02e-04   1.46e-04 
  5   2.0771e-04  -2.04e-04  -3.62e-04   2.58e-04 
  6   2.0771e-04  -5.02e-04   2.89e-04  -1.45e-04 
  7   7.1671e-04  -1.01e-03   1.40e-03  -7.36e-05 
  8   7.1671e-04  -7.80e-04   2.02e-04   6.74e-05 
  9   7.1671e-04   4.96e-04   4.87e-05   9.17e-04 
 10   7.1671e-04  -3.28e-04  -7.05e-04   6.52e-05 
 11   2.0771e-04  -3.30e-04   1.64e-04  -9.44e-05 
 12   2.0771e-04  -1.00e-04   1.05e-04  -1.83e-04 
 13   7.1671e-04  -6.60e-04   8.65e-04  -2.22e-04 
 14   7.1671e-04  -1.29e-04  -5.94e-04  -1.17e-04 
 15   7.1671e-04  -2.10e-03  -3.97e-06  -4.52e-04 
 16   2.0771e-04   4.37e-04   2.77e-05  -3.49e-04 
 17   2.0771e-04  -3.89e-05  -1.25e-04   1.17e-05 
 18   7.1671e-04  -9.51e-05   6.45e-04   1.06e-03 
 19   7.1671e-04  -8.35e-04   4.18e-04   1.08e-03 
 20   7.1671e-04  -1.08e-03   4.64e-04   1.06e-03 
T(nuclear) = 0.03325751 a.u.
v(c.o.m.) = ( -1.3114e-04,  -1.0628e-05,  -2.4337e-05)
T(c.o.m.) = 2.12250e-03 a.u.
kT/2 = 0.000472 a.u.
Tx   = 0.016492 a.u.
Ty   = 0.007691 a.u.
Tz   = 0.009074 a.u.
Mean velocities (a.u.):  -3.6958e-04   1.1967e-04   1.4207e-04
Removing c.o.m. velocity
T(nuclear) = 0.03031056 a.u.
v(c.o.m.) = ( -1.3344e-20,  -5.6186e-21,   3.7457e-21)
T(c.o.m.) = 2.65175e-35 a.u.
kT   = 0.000944 a.u. = 0.59 kcal/mol
Tx   = 0.012132 a.u. = 7.61 kcal/mol
Ty   = 0.008039 a.u. = 5.04 kcal/mol
Tz   = 0.010140 a.u. = 6.36 kcal/mol
Initial velocities in m/s
  1      2.3291e+02     -4.6208e+01      1.2275e+02 
  2     -6.6363e+02     -2.3994e+02     -8.1871e+02 
  3      5.2818e+02     -2.0383e+02      3.5890e+02 
  4      2.2630e+02     -4.2956e+02      3.4903e+02 
  5     -2.9045e+02     -7.7909e+02      5.9285e+02 
  6     -9.4357e+02      6.4487e+02     -2.8782e+02 
  7     -3.6333e+02      3.2080e+03      1.8249e+02 
  8      1.4427e+02      5.9182e+02      4.9094e+02 
  9      2.9364e+03      2.5666e+02      2.3492e+03 
 10      1.1345e+03     -1.3913e+03      4.8633e+02 
 11     -5.6596e+02      3.7068e+02     -1.7762e+02 
 12     -6.4075e+01      2.4252e+02     -3.7140e+02 
 13      4.0682e+02      2.0432e+03     -1.4218e+02 
 14      1.5699e+03     -1.1497e+03      8.6876e+01 
 15     -2.7343e+03      1.4137e+02     -6.4592e+02 
 16      1.1124e+03      7.3299e+01     -7.3396e+02 
 17      7.0478e+01     -2.6191e+02      5.4551e+01 
 18      1.6433e+03      1.5609e+03      2.6704e+03 
 19      2.4243e+01      1.0649e+03      2.7021e+03 
 20     -5.0603e+02      1.1656e+03      2.6719e+03 
----------------------------------------------------------------------------
       Nuclear coordinates (Angst) and velocities (a.u.)
----------------------------------------------------------------------------
             x        y        z            v_x         v_y        v_z
----------------------------------------------------------------------------
1      C    0.2787  -1.3668   0.0000     1.0646e-04  -2.1122e-05   5.6107e-05
2      C    1.3230  -0.4417   0.0000    -3.0335e-04  -1.0968e-04  -3.7423e-04
3      C    1.0443   0.9248   0.0000     2.4143e-04  -9.3172e-05   1.6406e-04
4      C   -0.2787   1.3668   0.0000     1.0344e-04  -1.9635e-04   1.5954e-04
5      C   -1.3230   0.4417   0.0000    -1.3277e-04  -3.5612e-04   2.7099e-04
6      C   -1.0443  -0.9248   0.0000    -4.3131e-04   2.9477e-04  -1.3156e-04
7      H    2.3660  -0.7904   0.0000    -1.6608e-04   1.4664e-03   8.3418e-05
8      H    1.8675   1.6541   0.0000     6.5947e-05   2.7052e-04   2.2441e-04
9      H   -2.3660   0.7904   0.0000     1.3422e-03   1.1732e-04   1.0738e-03
10     H   -1.8675  -1.6541   0.0000     5.1859e-04  -6.3595e-04   2.2230e-04
11     C   -0.5866   2.8759   0.0000    -2.5870e-04   1.6944e-04  -8.1189e-05
12     C    0.3635   3.8008   0.0000    -2.9289e-05   1.1085e-04  -1.6977e-04
13     H   -1.6565   3.1239   0.0000     1.8596e-04   9.3395e-04  -6.4990e-05
14     H    0.1443   4.8769   0.0000     7.1761e-04  -5.2553e-04   3.9711e-05
15     H    1.4334   3.5527   0.0000    -1.2499e-03   6.4622e-05  -2.9525e-04
16     C    0.5866  -2.8759   0.0000     5.0848e-04   3.3505e-05  -3.3550e-04
17     C   -0.3635  -3.8008   0.0000     3.2216e-05  -1.1972e-04   2.4936e-05
18     H    1.6565  -3.1239   0.0000     7.5116e-04   7.1349e-04   1.2206e-03
19     H   -0.1443  -4.8769   0.0000     1.1081e-05   4.8676e-04   1.2351e-03
20     H   -1.4334  -3.5527   0.0000    -2.3131e-04   5.3282e-04   1.2213e-03
----------------------------------------------------------------------------
Write nuclear velocities every 1 time steps

TIME STEP #1 (t = 0.000 a.u. = 0.00000 fs)
--------------------------------------
 Instantaneous Temperature = 319.0 K
 ----------------------------------------------------------------
             Standard Nuclear Orientation (Angstroms)
    I     Atom           X                Y                Z
 ----------------------------------------------------------------
    1      C       0.2801530295    -1.3674932228     0.0007422685
    2      C       1.3191619641    -0.4431396738    -0.0049508827
    3      C       1.0476879995     0.9236068075     0.0021703567
    4      C      -0.2773760773     1.3646161460     0.0021106502
    5      C      -1.3249314888     0.4369773504     0.0035850675
    6      C      -1.0501999607    -0.9209397516    -0.0017404811
    7      H       2.3636476780    -0.7710037375     0.0011035728
    8      H       1.8682049130     1.6573561532     0.0029687943
    9      H      -2.3480878001     0.7919553710     0.0142062102
   10      H      -1.8604718631    -1.6621905622     0.0029409676
   11      C      -0.5900488477     2.8778431904    -0.0010740814
   12      C       0.3632138569     3.8024070624    -0.0022459206
   13      H      -1.6540468605     3.1365676587    -0.0008597830
   14      H       0.1536084158     4.8698425869     0.0005253579
   15      H       1.4165885677     3.5535966097    -0.0039060223
   16      C       0.5933532194    -2.8751583529    -0.0044384151
   17      C      -0.3631751352    -3.8025243441     0.0003298826
   18      H       1.6664444394    -3.1147729706     0.0161482869
   19      H      -0.1439682232    -4.8703555509     0.0163401536
   20      H      -1.4361834932    -3.5456928178     0.0161572857
 ----------------------------------------------------------------
 Nuclear Repulsion Energy =         450.01501597 hartrees
 There are       35 alpha and       35 beta electrons
 Applying Cartesian multipole field
    Component          Value
    ---------          -----
     (2,0,0)        1.00000E-11
     (0,2,0)        2.00000E-11
     (0,0,2)       -3.00000E-10
 Nucleus-field energy     =     0.0000000315 hartrees
 Guess from superposition of atomic densities
 Warning:  Energy on first SCF cycle will be non-variational
 SAD guess density has 70.000000 electrons
 SCF convergence criterion is 10**(-8)

 -----------------------------------------------------------------------
  General SCF calculation program by
  Eric Jon Sundstrom, Paul Horn, Yuezhi Mao, Dmitri Zuev, Alec White,
  David Stuck, Shaama M.S., Shane Yost, Joonho Lee, David Small,
  Daniel Levine, Susi Lehtola, Hugh Burton, Evgeny Epifanovsky,
  Bang C. Huynh
 -----------------------------------------------------------------------
 Exchange:     0.2000 Hartree-Fock + 0.0800 Slater + 0.7200 B88
 Correlation:  0.1900 VWN1RPA + 0.8100 LYP
 Using SG-1 standard quadrature grid
 A restricted SCF calculation will be
 performed using DIIS
 SCF converges when DIIS error is below 1.0e-08
 ---------------------------------------
  Cycle       Energy         DIIS error
 ---------------------------------------
    1    -381.9358871486      1.39e-01  
    2    -382.2928460463      3.16e-03  
    3    -382.2925329919      3.55e-03  
    4    -382.2990113959      1.11e-03  
    5    -382.2996437264      3.31e-04  
    6    -382.2997024485      3.34e-05  
    7    -382.2997031166      5.40e-06  
    8    -382.2997031269      3.92e-06  
    9    -382.2997031355      7.09e-07  
   10    -382.2997031357      1.99e-07  
   11    -382.2997031357      9.23e-08  
   12    -382.2997031356      1.16e-08  
   13    -382.2997031355      6.02e-09  Convergence criterion met
 ---------------------------------------
 SCF time:   CPU 3.59s  wall 3.00s 
 SCF   energy in the final basis set =     -382.2997031355
 Total energy in the final basis set =     -382.2997031355
 Calculating analytic gradient of the SCF energy
 Gradient of SCF Energy
            1           2           3           4           5           6
    1  -0.0024154  -0.0212002  -0.0133324   0.0087127   0.0063684   0.0100057
    2   0.0494535  -0.0093563  -0.0033628  -0.0511802   0.0008548   0.0092480
    3   0.0021844  -0.0017558   0.0008530   0.0001532  -0.0000467  -0.0011303
            7           8           9          10          11          12
    1  -0.0018836   0.0015444   0.0121178   0.0008146  -0.0011669  -0.0017305
    2   0.0040741   0.0047173  -0.0037807  -0.0040856   0.0390618  -0.0158087
    3   0.0004459   0.0000258   0.0004192   0.0002000  -0.0004829  -0.0000875
           13          14          15          16          17          18
    1   0.0032602   0.0045150  -0.0097909   0.0020542   0.0106844   0.0010820
    2  -0.0021133  -0.0065206   0.0030297  -0.0350231   0.0101464   0.0037699
    3  -0.0000895   0.0002206  -0.0000702  -0.0022526  -0.0017460   0.0013940
           19          20
    1  -0.0026528  -0.0069866
    2   0.0050406   0.0018351
    3   0.0004712   0.0012941
 Max gradient component =       5.118E-02
 RMS gradient           =       1.282E-02
 Gradient time:  CPU 1.02 s  wall 1.03 s
 Time for this dynamics step: 4.6 s (CPU) 4.6 s (wall)

TIME STEP #2 (t = 25.000 a.u. = 0.60472 fs)
--------------------------------------
 Instantaneous Temperature = 312.2 K
 ----------------------------------------------------------------
             Standard Nuclear Orientation (Angstroms)
    I     Atom           X                Y                Z
 ----------------------------------------------------------------
    1      C       0.2816630996    -1.3689025418     0.0014515095
    2      C       1.3156140561    -0.4444021343    -0.0098752186
    3      C       1.0512325200     0.9224146791     0.0043278163
    4      C      -0.2762044073     1.3631744946     0.0042189837
    5      C      -1.3269288545     0.4322060266     0.0071708408
    6      C      -1.0562061437    -0.9171695486    -0.0034638725
    7      H       2.3616800293    -0.7523636612     0.0021268636
    8      H       1.8686708576     1.6597831091     0.0059329501
    9      H      -2.3324026825     0.7942141075     0.0283369517
   10      H      -1.8536294426    -1.6695656461     0.0058459352
   11      C      -0.5934883620     2.8791964723    -0.0021408621
   12      C       0.3629519988     3.8042889452    -0.0044905190
   13      H      -1.6522029685     3.1495726436    -0.0017034449
   14      H       0.1621084211     4.8639266969     0.0010110071
   15      H       1.4015518571     3.5539274075    -0.0077994135
   16      C       0.6000836897    -2.8738878618    -0.0088427715
   17      C      -0.3630099335    -3.8044378969     0.0006861637
   18      H       1.6762164198    -3.1062814995     0.0320456177
   19      H      -0.1431632751    -4.8646861952     0.0325954827
   20      H      -1.4377213491    -3.5389956046     0.0320815969
 ----------------------------------------------------------------
 Nuclear Repulsion Energy =         449.97440231 hartrees
 There are       35 alpha and       35 beta electrons
 Applying Cartesian multipole field
    Component          Value
    ---------          -----
     (2,0,0)        1.00000E-11
     (0,2,0)        2.00000E-11
     (0,0,2)       -3.00000E-10
 Nucleus-field energy     =     0.0000000315 hartrees
 Guess from superposition of atomic densities
 Warning:  Energy on first SCF cycle will be non-variational
 SAD guess density has 70.000000 electrons
 SCF convergence criterion is 10**(-8)

 -----------------------------------------------------------------------
  General SCF calculation program by
  Eric Jon Sundstrom, Paul Horn, Yuezhi Mao, Dmitri Zuev, Alec White,
  David Stuck, Shaama M.S., Shane Yost, Joonho Lee, David Small,
  Daniel Levine, Susi Lehtola, Hugh Burton, Evgeny Epifanovsky,
  Bang C. Huynh
 -----------------------------------------------------------------------
 Exchange:     0.2000 Hartree-Fock + 0.0800 Slater + 0.7200 B88
 Correlation:  0.1900 VWN1RPA + 0.8100 LYP
 Using SG-1 standard quadrature grid
 A restricted SCF calculation will be
 performed using DIIS
 SCF converges when DIIS error is below 1.0e-08
 ---------------------------------------
  Cycle       Energy         DIIS error
 ---------------------------------------
    1    -381.9437668142      1.39e-01  
    2    -382.2904179800      3.21e-03  
    3    -382.2895117015      3.74e-03  
    4    -382.2968109383      1.09e-03  
    5    -382.2974216985      3.43e-04  
    6    -382.2974845145      3.69e-05  
    7    -382.2974853021      8.34e-06  
    8    -382.2974853276      5.43e-06  
    9    -382.2974853444      7.27e-07  
   10    -382.2974853447      3.35e-07  
   11    -382.2974853447      7.82e-08  
   12    -382.2974853446      1.43e-08  
   13    -382.2974853446      7.21e-09  Convergence criterion met
 ---------------------------------------
 SCF time:   CPU 3.55s  wall 4.00s 
 SCF   energy in the final basis set =     -382.2974853446
 Total energy in the final basis set =     -382.2974853446
 Calculating analytic gradient of the SCF energy
 Gradient of SCF Energy
            1           2           3           4           5           6
    1   0.0033989  -0.0230355  -0.0061488   0.0085571  -0.0055708   0.0002034
    2   0.0472335  -0.0118131  -0.0077072  -0.0506267  -0.0052086   0.0199451
    3   0.0043637  -0.0034503   0.0016821   0.0003095   0.0000699  -0.0021864
            7           8           9          10          11          12
    1  -0.0047020   0.0011196   0.0243779   0.0032281  -0.0065731   0.0097369
    2   0.0075841   0.0055368  -0.0071412  -0.0045277   0.0373862  -0.0081236
    3   0.0008690   0.0000572   0.0006073   0.0003782  -0.0009570  -0.0001796
           13          14          15          16          17          18
    1   0.0055401   0.0067677  -0.0219027   0.0084370   0.0069999   0.0027786
    2  -0.0010478  -0.0140765   0.0061415  -0.0296240  -0.0025044   0.0043514
    3  -0.0001850   0.0004025  -0.0001027  -0.0045449  -0.0032956   0.0027833
           19          20
    1  -0.0032066  -0.0100056
    2   0.0109480   0.0032742
    3   0.0007714   0.0026075
 Max gradient component =       5.063E-02
 RMS gradient           =       1.332E-02
 Gradient time:  CPU 1.01 s  wall 1.01 s
 Time for this dynamics step: 4.6 s (CPU) 4.6 s (wall)

TIME STEP #3 (t = 50.000 a.u. = 1.20944 fs)
--------------------------------------
 Instantaneous Temperature = 289.4 K
 ----------------------------------------------------------------
             Standard Nuclear Orientation (Angstroms)
    I     Atom           X                Y                Z
 ----------------------------------------------------------------
    1      C       0.2831217792    -1.3710260114     0.0020947733
    2      C       1.3124144360    -0.4454859856    -0.0147473879
    3      C       1.0548700084     0.9213390811     0.0064598432
    4      C      -0.2751621174     1.3624982984     0.0063226380
    5      C      -1.3288419921     0.4275134551     0.0107555573
    6      C      -1.0622154023    -0.9137009077    -0.0051542060
    7      H       2.3605588613    -0.7350889243     0.0029937172
    8      H       1.8689352386     1.6612133037     0.0088868101
    9      H      -2.3211062135     0.7977584417     0.0423583678
   10      H      -1.8473681571    -1.6761256289     0.0086828162
   11      C      -0.5968284930     2.8799844899    -0.0031931732
   12      C       0.3625429230     3.8062936528    -0.0067324023
   13      H      -1.6513564401     3.1627662513    -0.0025138056
   14      H       0.1693900747     4.8605449370     0.0014241975
   15      H       1.3904581962     3.5531525793    -0.0116743215
   16      C       0.6066865966    -2.8721694678    -0.0131784113
   17      C      -0.3629505677    -3.8063135849     0.0010922736
   18      H       1.6854881905    -3.0985733967     0.0474418895
   19      H      -0.1417810645    -4.8609877489     0.0487119463
   20      H      -1.4374579419    -3.5328878283     0.0475364957
 ----------------------------------------------------------------
 Nuclear Repulsion Energy =         449.86039416 hartrees
 There are       35 alpha and       35 beta electrons
 Applying Cartesian multipole field
    Component          Value
    ---------          -----
     (2,0,0)        1.00000E-11
     (0,2,0)        2.00000E-11
     (0,0,2)       -3.00000E-10
 Nucleus-field energy     =     0.0000000315 hartrees
 Guess from superposition of atomic densities
 Warning:  Energy on first SCF cycle will be non-variational
 SAD guess density has 70.000000 electrons
 SCF convergence criterion is 10**(-8)

 -----------------------------------------------------------------------
  General SCF calculation program by
  Eric Jon Sundstrom, Paul Horn, Yuezhi Mao, Dmitri Zuev, Alec White,
  David Stuck, Shaama M.S., Shane Yost, Joonho Lee, David Small,
  Daniel Levine, Susi Lehtola, Hugh Burton, Evgeny Epifanovsky,
  Bang C. Huynh
 -----------------------------------------------------------------------
 Exchange:     0.2000 Hartree-Fock + 0.0800 Slater + 0.7200 B88
 Correlation:  0.1900 VWN1RPA + 0.8100 LYP
 Using SG-1 standard quadrature grid
 A restricted SCF calculation will be
 performed using DIIS
 SCF converges when DIIS error is below 1.0e-08
 ---------------------------------------
  Cycle       Energy         DIIS error
 ---------------------------------------
    1    -381.9441434218      1.39e-01  
    2    -382.2872739578      3.27e-03  
    3    -382.2857797372      3.92e-03  
    4    -382.2938810353      1.08e-03  
    5    -382.2944751060      3.57e-04  
    6    -382.2945430345      4.20e-05  
    7    -382.2945440272      1.15e-05  
    8    -382.2945440891      5.38e-06  
    9    -382.2945441058      8.93e-07  
   10    -382.2945441062      4.30e-07  
   11    -382.2945441063      7.05e-08  
   12    -382.2945441062      1.56e-08  
   13    -382.2945441061      7.85e-09  Convergence criterion met
 ---------------------------------------
 SCF time:   CPU 3.54s  wall 4.00s 
 SCF   energy in the final basis set =     -382.2945441061
 Total energy in the final basis set =     -382.2945441061
 Calculating analytic gradient of the SCF energy
 Gradient of SCF Energy
            1           2           3           4           5           6
    1   0.0085739  -0.0250003   0.0015606   0.0081883  -0.0140393  -0.0092736
    2   0.0439707  -0.0134305  -0.0114492  -0.0490883  -0.0126025   0.0304984
    3   0.0065094  -0.0050809   0.0024767   0.0004644   0.0002495  -0.0031538
            7           8           9          10          11          12
    1  -0.0067192   0.0001769   0.0329829   0.0056252  -0.0109566   0.0187286
    2   0.0106243   0.0057867  -0.0094188  -0.0047636   0.0345710  -0.0013435
    3   0.0012751   0.0000927   0.0006640   0.0005323  -0.0014175  -0.0002737
           13          14          15          16          17          18
    1   0.0067716   0.0084660  -0.0308463   0.0144244   0.0018428   0.0045720
    2   0.0003017  -0.0197197   0.0084209  -0.0235311  -0.0130146   0.0047623
    3  -0.0002832   0.0005558  -0.0001095  -0.0068519  -0.0046456   0.0041584
           19          20
    1  -0.0034631  -0.0116148
    2   0.0150236   0.0044022
    3   0.0009712   0.0038666
 Max gradient component =       4.909E-02
 RMS gradient           =       1.471E-02
 Gradient time:  CPU 1.01 s  wall 1.01 s
 Time for this dynamics step: 4.6 s (CPU) 4.6 s (wall)

TIME STEP #4 (t = 75.000 a.u. = 1.81416 fs)
--------------------------------------
 Instantaneous Temperature = 259.2 K
 ----------------------------------------------------------------
             Standard Nuclear Orientation (Angstroms)
    I     Atom           X                Y                Z
 ----------------------------------------------------------------
    1      C       0.2844508244    -1.3738142999     0.0026396173
    2      C       1.3095928098    -0.4463667735    -0.0195427360
    3      C       1.0584839008     0.9204365908     0.0085544236
    4      C      -0.2742436305     1.3625642976     0.0084192701
    5      C      -1.3305428616     0.4230114282     0.0143365011
    6      C      -1.0680844477    -0.9106933896    -0.0067968558
    7      H       2.3606473116    -0.7197268302     0.0036310259
    8      H       1.8691677702     1.6616017528     0.0118239747
    9      H      -2.3157474958     0.8029984020     0.0562602517
   10      H      -1.8421195557    -1.6818280384     0.0114238618
   11      C      -0.6000029651     2.8802498077    -0.0042240517
   12      C       0.3618506793     3.8083186729    -0.0089701472
   13      H      -1.6517289690     3.1759055417    -0.0032731862
   14      H       0.1751476325     4.8607132211     0.0017373376
   15      H       1.3849176561     3.5508617804    -0.0155295084
   16      C       0.6130714132    -2.8700952937    -0.0174104530
   17      C      -0.3629190638    -3.8079924982     0.0015686229
   18      H       1.6939368921    -3.0917226318     0.0620895381
   19      H      -0.1397754124    -4.8599939358     0.0646535725
   20      H      -1.4351035844    -3.5275725526     0.0622953098
 ----------------------------------------------------------------
 Nuclear Repulsion Energy =         449.65562128 hartrees
 There are       35 alpha and       35 beta electrons
 Applying Cartesian multipole field
    Component          Value
    ---------          -----
     (2,0,0)        1.00000E-11
     (0,2,0)        2.00000E-11
     (0,0,2)       -3.00000E-10
 Nucleus-field energy     =     0.0000000315 hartrees
 Guess from superposition of atomic densities
 Warning:  Energy on first SCF cycle will be non-variational
 SAD guess density has 70.000000 electrons
 SCF convergence criterion is 10**(-8)

 -----------------------------------------------------------------------
  General SCF calculation program by
  Eric Jon Sundstrom, Paul Horn, Yuezhi Mao, Dmitri Zuev, Alec White,
  David Stuck, Shaama M.S., Shane Yost, Joonho Lee, David Small,
  Daniel Levine, Susi Lehtola, Hugh Burton, Evgeny Epifanovsky,
  Bang C. Huynh
 -----------------------------------------------------------------------
 Exchange:     0.2000 Hartree-Fock + 0.0800 Slater + 0.7200 B88
 Correlation:  0.1900 VWN1RPA + 0.8100 LYP
 Using SG-1 standard quadrature grid
 A restricted SCF calculation will be
 performed using DIIS
 SCF converges when DIIS error is below 1.0e-08
 ---------------------------------------
  Cycle       Energy         DIIS error
 ---------------------------------------
    1    -381.9346121545      1.38e-01  
    2    -382.2845193316      3.30e-03  
    3    -382.2825452436      4.05e-03  
    4    -382.2912803549      1.08e-03  
    5    -382.2918669885      3.72e-04  
    6    -382.2919407055      4.85e-05  
    7    -382.2919420069      1.40e-05  
    8    -382.2919421085      5.07e-06  
    9    -382.2919421234      1.10e-06  
   10    -382.2919421240      4.86e-07  
   11    -382.2919421241      6.75e-08  
   12    -382.2919421240      1.35e-08  
   13    -382.2919421240      6.94e-09  Convergence criterion met
 ---------------------------------------
 SCF time:   CPU 3.50s  wall 3.00s 
 SCF   energy in the final basis set =     -382.2919421240
 Total energy in the final basis set =     -382.2919421240
 Calculating analytic gradient of the SCF energy
 Gradient of SCF Energy
            1           2           3           4           5           6
    1   0.0129280  -0.0273373   0.0094277   0.0076875  -0.0169697  -0.0180402
    2   0.0397545  -0.0141292  -0.0144490  -0.0467475  -0.0218356   0.0406253
    3   0.0085912  -0.0066530   0.0032272   0.0006126   0.0003125  -0.0040262
            7           8           9          10          11          12
    1  -0.0075500  -0.0011814   0.0358768   0.0078275  -0.0138882   0.0230217
    2   0.0130650   0.0055069  -0.0097282  -0.0048818   0.0308347   0.0036714
    3   0.0016763   0.0001308   0.0007756   0.0006642  -0.0018612  -0.0003631
           13          14          15          16          17          18
    1   0.0067555   0.0093817  -0.0343860   0.0199575  -0.0048713   0.0062453
    2   0.0019877  -0.0222230   0.0092228  -0.0170609  -0.0201357   0.0050390
    3  -0.0003802   0.0007025  -0.0001180  -0.0091329  -0.0058469   0.0054983
           19          20
    1  -0.0032547  -0.0116304
    2   0.0163755   0.0051082
    3   0.0011952   0.0049951
 Max gradient component =       4.675E-02
 RMS gradient           =       1.594E-02
 Gradient time:  CPU 1.02 s  wall 1.02 s
 Time for this dynamics step: 4.5 s (CPU) 4.5 s (wall)

TIME STEP #5 (t = 100.000 a.u. = 2.41888 fs)
--------------------------------------
 Instantaneous Temperature = 232.2 K
 ----------------------------------------------------------------
             Standard Nuclear Orientation (Angstroms)
    I     Atom           X                Y                Z
 ----------------------------------------------------------------
    1      C       0.2855844042    -1.3772036595     0.0030545659
    2      C       1.3071845118    -0.4470339337    -0.0242374935
    3      C       1.0619552496     0.9197525630     0.0106002105
    4      C      -0.2734413749     1.3633370992     0.0105066399
    5      C      -1.3319871568     0.4188395466     0.0179127203
    6      C      -1.0736807327    -0.9083001089    -0.0083786310
    7      H       2.3620949510    -0.7067167758     0.0039665638
    8      H       1.8696129888     1.6609988271     0.0147375883
    9      H      -2.3168475043     0.8099896829     0.0700224990
   10      H      -1.8382800980    -1.6866515972     0.0140453275
   11      C      -0.6029674542     2.8800489181    -0.0052267893
   12      C       0.3608103576     3.8102881829    -0.0112024019
   13      H      -1.6533176647     3.1886869899    -0.0039641136
   14      H       0.1792162432     4.8648822146     0.0019240095
   15      H       1.3855674618     3.5469106426    -0.0193634514
   16      C       0.6191544814    -2.8677631653    -0.0215044098
   17      C      -0.3628139086    -3.8093669684     0.0021333754
   18      H       1.7012612833    -3.0857790067     0.0757473525
   19      H      -0.1371838319    -4.8619481244     0.0803800296
   20      H      -1.4306554567    -3.5231768846     0.0761548726
 ----------------------------------------------------------------
 Nuclear Repulsion Energy =         449.35565071 hartrees
 There are       35 alpha and       35 beta electrons
 Applying Cartesian multipole field
    Component          Value
    ---------          -----
     (2,0,0)        1.00000E-11
     (0,2,0)        2.00000E-11
     (0,0,2)       -3.00000E-10
 Nucleus-field energy     =     0.0000000315 hartrees
 Guess from superposition of atomic densities
 Warning:  Energy on first SCF cycle will be non-variational
 SAD guess density has 70.000000 electrons
 SCF convergence criterion is 10**(-8)

 -----------------------------------------------------------------------
  General SCF calculation program by
  Eric Jon Sundstrom, Paul Horn, Yuezhi Mao, Dmitri Zuev, Alec White,
  David Stuck, Shaama M.S., Shane Yost, Joonho Lee, David Small,
  Daniel Levine, Susi Lehtola, Hugh Burton, Evgeny Epifanovsky,
  Bang C. Huynh
 -----------------------------------------------------------------------
 Exchange:     0.2000 Hartree-Fock + 0.0800 Slater + 0.7200 B88
 Correlation:  0.1900 VWN1RPA + 0.8100 LYP
 Using SG-1 standard quadrature grid
 A restricted SCF calculation will be
 performed using DIIS
 SCF converges when DIIS error is below 1.0e-08
 ---------------------------------------
  Cycle       Energy         DIIS error
 ---------------------------------------
    1    -381.9143839369      1.38e-01  
    2    -382.2827797422      3.32e-03  
    3    -382.2805129922      4.13e-03  
    4    -382.2896041120      1.09e-03  
    5    -382.2901946942      3.88e-04  
    6    -382.2902746015      5.55e-05  
    7    -382.2902763057      1.57e-05  
    8    -382.2902764373      4.90e-06  
    9    -382.2902764511      1.30e-06  
   10    -382.2902764521      5.11e-07  
   11    -382.2902764522      6.73e-08  
   12    -382.2902764521      1.19e-08  
   13    -382.2902764521      3.84e-09  Convergence criterion met
 ---------------------------------------
 SCF time:   CPU 3.48s  wall 4.00s 
 SCF   energy in the final basis set =     -382.2902764521
 Total energy in the final basis set =     -382.2902764521
 Calculating analytic gradient of the SCF energy
 Gradient of SCF Energy
            1           2           3           4           5           6
    1   0.0163605  -0.0300857   0.0170335   0.0071730  -0.0138169  -0.0257761
    2   0.0346856  -0.0139246  -0.0166478  -0.0437616  -0.0328534   0.0499470
    3   0.0105785  -0.0081725   0.0039260   0.0007477   0.0000788  -0.0048075
            7           8           9          10          11          12
    1  -0.0070354  -0.0027836   0.0324555   0.0096832  -0.0152817   0.0216329
    2   0.0148496   0.0048061  -0.0076712  -0.0049658   0.0263867   0.0064526
    3   0.0020833   0.0001702   0.0011375   0.0007788  -0.0022860  -0.0004402
           13          14          15          16          17          18
    1   0.0055398   0.0094335  -0.0315799   0.0250347  -0.0129938   0.0075898
    2   0.0039945  -0.0209663   0.0082132  -0.0104803  -0.0233095   0.0052179
    3  -0.0004719   0.0008687  -0.0001596  -0.0113338  -0.0069748   0.0067704
           19          20
    1  -0.0025190  -0.0100644
    2   0.0146913   0.0053363
    3   0.0015780   0.0059283
 Max gradient component =       4.995E-02
 RMS gradient           =       1.659E-02
 Gradient time:  CPU 0.99 s  wall 0.99 s
 Time for this dynamics step: 4.5 s (CPU) 4.5 s (wall)

TIME STEP #6 (t = 125.000 a.u. = 3.02361 fs)
--------------------------------------
 Instantaneous Temperature = 214.5 K
 ----------------------------------------------------------------
             Standard Nuclear Orientation (Angstroms)
    I     Atom           X                Y                Z
 ----------------------------------------------------------------
    1      C       0.2864706197    -1.3811174510     0.0033095713
    2      C       1.3052310972    -0.4474905600    -0.0288086868
    3      C       1.0651690587     0.9193202429     0.0125866382
    4      C      -0.2727475721     1.3647715575     0.0125827054
    5      C      -1.3332225458     0.4151643948     0.0214877475
    6      C      -1.0788872936    -0.9066620055    -0.0098877190
    7      H       2.3648091456    -0.6963800183     0.0039270501
    8      H       1.8705593183     1.6595306893     0.0176205588
    9      H      -2.3237903348     0.8183619789     0.0835799660
   10      H      -1.8361838617    -1.6905811793     0.0165265812
   11      C      -0.6057008906     2.8794490732    -0.0061949641
   12      C       0.3594429559     3.8121601324    -0.0134280006
   13      H      -1.6559036709     3.2007493282    -0.0045700783
   14      H       0.1815865893     4.8728256730     0.0019542953
   15      H       1.3919024477     3.5414809241    -0.0231686594
   16      C       0.6248590359    -2.8652725792    -0.0254270039
   17      C      -0.3625122932    -3.8103890082     0.0028035845
   18      H       1.7072193134    -3.0807747340     0.0881863221
   19      H      -0.1341387652    -4.8665471126     0.0958223980
   20      H      -1.4243954800    -3.5197418835     0.0889471907
 ----------------------------------------------------------------
 Nuclear Repulsion Energy =         448.97163635 hartrees
 There are       35 alpha and       35 beta electrons
 Applying Cartesian multipole field
    Component          Value
    ---------          -----
     (2,0,0)        1.00000E-11
     (0,2,0)        2.00000E-11
     (0,0,2)       -3.00000E-10
 Nucleus-field energy     =     0.0000000315 hartrees
 Guess from superposition of atomic densities
 Warning:  Energy on first SCF cycle will be non-variational
 SAD guess density has 70.000000 electrons
 SCF convergence criterion is 10**(-8)

 -----------------------------------------------------------------------
  General SCF calculation program by
  Eric Jon Sundstrom, Paul Horn, Yuezhi Mao, Dmitri Zuev, Alec White,
  David Stuck, Shaama M.S., Shane Yost, Joonho Lee, David Small,
  Daniel Levine, Susi Lehtola, Hugh Burton, Evgeny Epifanovsky,
  Bang C. Huynh
 -----------------------------------------------------------------------
 Exchange:     0.2000 Hartree-Fock + 0.0800 Slater + 0.7200 B88
 Correlation:  0.1900 VWN1RPA + 0.8100 LYP
 Using SG-1 standard quadrature grid
 A restricted SCF calculation will be
 performed using DIIS
 SCF converges when DIIS error is below 1.0e-08
 ---------------------------------------
  Cycle       Energy         DIIS error
 ---------------------------------------
    1    -381.8845886970      1.37e-01  
    2    -382.2818493219      3.31e-03  
    3    -382.2794958325      4.14e-03  
    4    -382.2886466095      1.10e-03  
    5    -382.2892520649      4.04e-04  
    6    -382.2893384726      6.20e-05  
    7    -382.2893406233      1.65e-05  
    8    -382.2893407711      4.90e-06  
    9    -382.2893407847      1.48e-06  
   10    -382.2893407861      5.16e-07  
   11    -382.2893407862      7.11e-08  
   12    -382.2893407861      2.24e-08  
   13    -382.2893407861      1.03e-08  
   14    -382.2893407862      1.86e-09  Convergence criterion met
 ---------------------------------------
 SCF time:   CPU 3.68s  wall 3.00s 
 SCF   energy in the final basis set =     -382.2893407862
 Total energy in the final basis set =     -382.2893407862
 Calculating analytic gradient of the SCF energy
 Gradient of SCF Energy
            1           2           3           4           5           6
    1   0.0188471  -0.0330513   0.0239397   0.0067856  -0.0058587  -0.0322351
    2   0.0288772  -0.0129155  -0.0180658  -0.0402604  -0.0448113   0.0579792
    3   0.0124433  -0.0096390   0.0045681   0.0008630  -0.0005307  -0.0055117
            7           8           9          10          11          12
    1  -0.0052798  -0.0044056   0.0238761   0.0110790  -0.0153887   0.0152751
    2   0.0159859   0.0038470  -0.0035688  -0.0050782   0.0214259   0.0070017
    3   0.0024987   0.0002104   0.0018534   0.0008825  -0.0026904  -0.0005012
           13          14          15          16          17          18
    1   0.0034025   0.0087142  -0.0232526   0.0296809  -0.0221050   0.0084330
    2   0.0062284  -0.0161754   0.0055458  -0.0040011  -0.0227912   0.0053312
    3  -0.0005545   0.0010718  -0.0002542  -0.0133940  -0.0080839   0.0079349
           19          20
    1  -0.0013335  -0.0071229
    2   0.0103507   0.0050948
    3   0.0022081   0.0066253
 Max gradient component =       5.798E-02
 RMS gradient           =       1.699E-02
 Gradient time:  CPU 0.98 s  wall 0.98 s
 Time for this dynamics step: 4.7 s (CPU) 4.7 s (wall)

TIME STEP #7 (t = 150.000 a.u. = 3.62833 fs)
--------------------------------------
 Instantaneous Temperature = 204.2 K
 ----------------------------------------------------------------
             Standard Nuclear Orientation (Angstroms)
    I     Atom           X                Y                Z
 ----------------------------------------------------------------
    1      C       0.2870718749    -1.3854678544     0.0033764393
    2      C       1.3037774044    -0.4477519090    -0.0332341430
    3      C       1.0680209102     0.9191610696     0.0145039978
    4      C      -0.2721563647     1.3668147369     0.0146457221
    5      C      -1.3343693540     0.4121667718     0.0250707987
    6      C      -1.0836064737    -0.9059005228    -0.0113134731
    7      H       2.3684738303    -0.6889211319     0.0034377055
    8      H       1.8722987713     1.6573699881     0.0204656495
    9      H      -2.3350314664     0.8273767561     0.0968037771
   10      H      -1.8360821233    -1.6935965646     0.0188489611
   11      C      -0.6082016560     2.8785252770    -0.0071224614
   12      C       0.3578446007     3.8139262196    -0.0156460217
   13      H      -1.6591022070     3.2116904024    -0.0050762216
   14      H       0.1823881588     4.8836811110     0.0017916287
   15      H       1.4024234875     3.5350528274    -0.0269281016
   16      C       0.6301148273    -2.8627214979    -0.0291470866
   17      C      -0.3618764596    -3.8110664547     0.0035960191
   18      H       1.7116591804    -3.0767302192     0.0991968130
   19      H      -0.1308536273    -4.8730094810     0.1108672580
   20      H      -1.4168531987    -3.5172240705     0.1005467947
 ----------------------------------------------------------------
 Nuclear Repulsion Energy =         448.52758037 hartrees
 There are       35 alpha and       35 beta electrons
 Applying Cartesian multipole field
    Component          Value
    ---------          -----
     (2,0,0)        1.00000E-11
     (0,2,0)        2.00000E-11
     (0,0,2)       -3.00000E-10
 Nucleus-field energy     =     0.0000000315 hartrees
 Guess from superposition of atomic densities
 Warning:  Energy on first SCF cycle will be non-variational
 SAD guess density has 70.000000 electrons
 SCF convergence criterion is 10**(-8)

 -----------------------------------------------------------------------
  General SCF calculation program by
  Eric Jon Sundstrom, Paul Horn, Yuezhi Mao, Dmitri Zuev, Alec White,
  David Stuck, Shaama M.S., Shane Yost, Joonho Lee, David Small,
  Daniel Levine, Susi Lehtola, Hugh Burton, Evgeny Epifanovsky,
  Bang C. Huynh
 -----------------------------------------------------------------------
 Exchange:     0.2000 Hartree-Fock + 0.0800 Slater + 0.7200 B88
 Correlation:  0.1900 VWN1RPA + 0.8100 LYP
 Using SG-1 standard quadrature grid
 A restricted SCF calculation will be
 performed using DIIS
 SCF converges when DIIS error is below 1.0e-08
 ---------------------------------------
  Cycle       Energy         DIIS error
 ---------------------------------------
    1    -381.8479838361      1.37e-01  
    2    -382.2810103093      3.29e-03  
    3    -382.2787324133      4.11e-03  
    4    -382.2877173941      1.12e-03  
    5    -382.2883459733      4.19e-04  
    6    -382.2884391537      6.72e-05  
    7    -382.2884417219      1.69e-05  
    8    -382.2884418752      5.03e-06  
    9    -382.2884418896      1.62e-06  
   10    -382.2884418912      5.12e-07  
   11    -382.2884418913      7.98e-08  
   12    -382.2884418913      3.85e-08  
   13    -382.2884418912      1.05e-08  
   14    -382.2884418912      2.03e-09  Convergence criterion met
 ---------------------------------------
 SCF time:   CPU 3.71s  wall 4.00s 
 SCF   energy in the final basis set =     -382.2884418912
 Total energy in the final basis set =     -382.2884418912
 Calculating analytic gradient of the SCF energy
 Gradient of SCF Energy
            1           2           3           4           5           6
    1   0.0204274  -0.0358495   0.0297266   0.0066615   0.0044399  -0.0372522
    2   0.0224566  -0.0112604  -0.0187869  -0.0363513  -0.0562659   0.0641712
    3   0.0141613  -0.0110422   0.0051519   0.0009529  -0.0014417  -0.0061620
            7           8           9          10          11          12
    1  -0.0026153  -0.0057979   0.0124568   0.0119439  -0.0147003   0.0059471
    2   0.0165283   0.0028243   0.0016894  -0.0052506   0.0161423   0.0057618
    3   0.0029130   0.0002519   0.0028817   0.0009811  -0.0030734  -0.0005475
           13          14          15          16          17          18
    1   0.0007744   0.0074512  -0.0115652   0.0339157  -0.0315209   0.0086595
    2   0.0085302  -0.0088360   0.0017894   0.0022125  -0.0195011   0.0054035
    3  -0.0006251   0.0013125  -0.0004005  -0.0152530  -0.0091825   0.0089506
           19          20
    1   0.0001028  -0.0032057
    2   0.0042805   0.0044623
    3   0.0030911   0.0070798
 Max gradient component =       6.417E-02
 RMS gradient           =       1.767E-02
 Gradient time:  CPU 1.00 s  wall 1.00 s
 Time for this dynamics step: 4.7 s (CPU) 4.7 s (wall)

TIME STEP #8 (t = 175.000 a.u. = 4.23305 fs)
--------------------------------------
 Instantaneous Temperature = 194.4 K
 ----------------------------------------------------------------
             Standard Nuclear Orientation (Angstroms)
    I     Atom           X                Y                Z
 ----------------------------------------------------------------
    1      C       0.2873642768    -1.3901577922     0.0032291946
    2      C       1.3028657403    -0.4478430061    -0.0374926452
    3      C       1.0704233074     0.9192859467     0.0163434621
    4      C      -0.2716658757     1.3694075325     0.0166943313
    5      C      -1.3355832917     0.4100198652     0.0286756476
    6      C      -1.0877624160    -0.9061092818    -0.0126460607
    7      H       2.3726093333    -0.6844377544     0.0024239445
    8      H       1.8750819910     1.6547008479     0.0232653923
    9      H      -2.3485151472     0.8360874015     0.1095088059
   10      H      -1.8381305978    -1.6956667012     0.0209947118
   11      C      -0.6104801583     2.8773574164    -0.0080034902
   12      C       0.3561563280     3.8156051909    -0.0178557652
   13      H      -1.6624401606     3.2210958231    -0.0054698371
   14      H       0.1818483285     4.8961272578     0.0013926834
   15      H       1.4150265554     3.5283025989    -0.0306154459
   16      C       0.6348578267    -2.8602038690    -0.0326365502
   17      C      -0.3607640436    -3.8114490525     0.0045272894
   18      H       1.7145401179    -3.0736584659     0.1085959697
   19      H      -0.1275870013    -4.8802424526     0.1253556363
   20      H      -1.4087338119    -3.5155095907     0.1108718607
 ----------------------------------------------------------------
 Nuclear Repulsion Energy =         448.05400053 hartrees
 There are       35 alpha and       35 beta electrons
 Applying Cartesian multipole field
    Component          Value
    ---------          -----
     (2,0,0)        1.00000E-11
     (0,2,0)        2.00000E-11
     (0,0,2)       -3.00000E-10
 Nucleus-field energy     =     0.0000000315 hartrees
 Guess from superposition of atomic densities
 Warning:  Energy on first SCF cycle will be non-variational
 SAD guess density has 70.000000 electrons
 SCF convergence criterion is 10**(-8)

 -----------------------------------------------------------------------
  General SCF calculation program by
  Eric Jon Sundstrom, Paul Horn, Yuezhi Mao, Dmitri Zuev, Alec White,
  David Stuck, Shaama M.S., Shane Yost, Joonho Lee, David Small,
  Daniel Levine, Susi Lehtola, Hugh Burton, Evgeny Epifanovsky,
  Bang C. Huynh
 -----------------------------------------------------------------------
 Exchange:     0.2000 Hartree-Fock + 0.0800 Slater + 0.7200 B88
 Correlation:  0.1900 VWN1RPA + 0.8100 LYP
 Using SG-1 standard quadrature grid
 A restricted SCF calculation will be
 performed using DIIS
 SCF converges when DIIS error is below 1.0e-08
 ---------------------------------------
  Cycle       Energy         DIIS error
 ---------------------------------------
    1    -381.8082202772      1.36e-01  
    2    -382.2796945148      3.26e-03  
    3    -382.2775801513      4.05e-03  
    4    -382.2862857125      1.15e-03  
    5    -382.2869416043      4.34e-04  
    6    -382.2870416207      7.09e-05  
    7    -382.2870445174      1.69e-05  
    8    -382.2870446708      5.25e-06  
    9    -382.2870446865      1.71e-06  
   10    -382.2870446883      5.03e-07  
   11    -382.2870446884      9.16e-08  
   12    -382.2870446884      5.21e-08  
   13    -382.2870446883      9.76e-09  Convergence criterion met
 ---------------------------------------
 SCF time:   CPU 3.48s  wall 3.00s 
 SCF   energy in the final basis set =     -382.2870446883
 Total energy in the final basis set =     -382.2870446883
 Calculating analytic gradient of the SCF energy
 Gradient of SCF Energy
            1           2           3           4           5           6
    1   0.0211888  -0.0380019   0.0340370   0.0069052   0.0144715  -0.0407469
    2   0.0155673  -0.0091487  -0.0189313  -0.0321263  -0.0656458   0.0679906
    3   0.0157132  -0.0123625   0.0056788   0.0010128  -0.0024592  -0.0067878
            7           8           9          10          11          12
    1   0.0004883  -0.0067205   0.0006777   0.0122477  -0.0138027  -0.0039908
    2   0.0165551   0.0019317   0.0070404  -0.0054839   0.0107165   0.0034832
    3   0.0033060   0.0002963   0.0040655   0.0010790  -0.0034339  -0.0005842
           13          14          15          16          17          18
    1  -0.0018636   0.0059242   0.0009502   0.0377262  -0.0403557   0.0082240
    2   0.0107042  -0.0003390  -0.0023293   0.0080324  -0.0146989   0.0054493
    3  -0.0006823   0.0015751  -0.0005786  -0.0168587  -0.0102405   0.0097822
           19          20
    1   0.0015308   0.0011105
    2  -0.0023529   0.0035853
    3   0.0041519   0.0073270
 Max gradient component =       6.799E-02
 RMS gradient           =       1.880E-02
 Gradient time:  CPU 0.98 s  wall 0.98 s
 Time for this dynamics step: 4.5 s (CPU) 4.5 s (wall)

TIME STEP #9 (t = 200.000 a.u. = 4.83777 fs)
--------------------------------------
 Instantaneous Temperature = 179.7 K
 ----------------------------------------------------------------
             Standard Nuclear Orientation (Angstroms)
    I     Atom           X                Y                Z
 ----------------------------------------------------------------
    1      C       0.2873363132    -1.3950831006     0.0028443730
    2      C       1.3025286494    -0.4477957780    -0.0415642310
    3      C       1.0723110791     0.9196970574     0.0180970649
    4      C      -0.2712797907     1.3724860637     0.0187276270
    5      C      -1.3370160321     0.4088654956     0.0323176788
    6      C      -1.0913022829    -0.9073460299    -0.0138760190
    7      H       2.3766569244    -0.6829347188     0.0008150251
    8      H       1.8790750792     1.6516839545     0.0260118007
    9      H      -2.3621208346     0.8435305906     0.1214819405
   10      H      -1.8423839713    -1.6967496037     0.0229462200
   11      C      -0.6125499690     2.8760275270    -0.0088325992
   12      C       0.3545283945     3.8172314972    -0.0200566754
   13      H      -1.6654426183     3.2285742171    -0.0057406216
   14      H       0.1802419849     4.9086344346     0.0007101743
   15      H       1.4274585689     3.5219716981    -0.0341986225
   16      C       0.6390304210    -2.8578076868    -0.0358711169
   17      C      -0.3590414658    -3.8116094086     0.0056133911
   18      H       1.7159405280    -3.0715677300     0.1162340839
   19      H      -0.1245959593    -4.8870518441     0.1390965610
   20      H      -1.4008143445    -3.5144405633     0.1198778724
 ----------------------------------------------------------------
 Nuclear Repulsion Energy =         447.58147836 hartrees
 There are       35 alpha and       35 beta electrons
 Applying Cartesian multipole field
    Component          Value
    ---------          -----
     (2,0,0)        1.00000E-11
     (0,2,0)        2.00000E-11
     (0,0,2)       -3.00000E-10
 Nucleus-field energy     =     0.0000000315 hartrees
 Guess from superposition of atomic densities
 Warning:  Energy on first SCF cycle will be non-variational
 SAD guess density has 70.000000 electrons
 SCF convergence criterion is 10**(-8)

 -----------------------------------------------------------------------
  General SCF calculation program by
  Eric Jon Sundstrom, Paul Horn, Yuezhi Mao, Dmitri Zuev, Alec White,
  David Stuck, Shaama M.S., Shane Yost, Joonho Lee, David Small,
  Daniel Levine, Susi Lehtola, Hugh Burton, Evgeny Epifanovsky,
  Bang C. Huynh
 -----------------------------------------------------------------------
 Exchange:     0.2000 Hartree-Fock + 0.0800 Slater + 0.7200 B88
 Correlation:  0.1900 VWN1RPA + 0.8100 LYP
 Using SG-1 standard quadrature grid
 A restricted SCF calculation will be
 performed using DIIS
 SCF converges when DIIS error is below 1.0e-08
 ---------------------------------------
  Cycle       Energy         DIIS error
 ---------------------------------------
    1    -381.7690151845      1.35e-01  
    2    -382.2779132403      3.24e-03  
    3    -382.2759814648      4.00e-03  
    4    -382.2843939989      1.17e-03  
    5    -382.2850770189      4.47e-04  
    6    -382.2851834511      7.31e-05  
    7    -382.2851865592      1.69e-05  
    8    -382.2851867108      5.51e-06  
    9    -382.2851867281      1.76e-06  
   10    -382.2851867301      4.95e-07  
   11    -382.2851867302      1.03e-07  
   12    -382.2851867302      6.08e-08  
   13    -382.2851867301      9.43e-09  Convergence criterion met
 ---------------------------------------
 SCF time:   CPU 3.45s  wall 4.00s 
 SCF   energy in the final basis set =     -382.2851867301
 Total energy in the final basis set =     -382.2851867301
 Calculating analytic gradient of the SCF energy
 Gradient of SCF Energy
            1           2           3           4           5           6
    1   0.0212478  -0.0390459   0.0366181   0.0075731   0.0222591  -0.0427179
    2   0.0083703  -0.0067785  -0.0186171  -0.0276689  -0.0717053   0.0690261
    3   0.0170843  -0.0135742   0.0061529   0.0010402  -0.0033586  -0.0074198
            7           8           9          10          11          12
    1   0.0035317  -0.0069847  -0.0095591   0.0119943  -0.0132426  -0.0125936
    2   0.0161524   0.0013260   0.0116100  -0.0057532   0.0053197   0.0010134
    3   0.0036510   0.0003460   0.0052178   0.0011781  -0.0037707  -0.0006171
           13          14          15          16          17          18
    1  -0.0040740   0.0043889   0.0122042   0.0410493  -0.0476355   0.0071578
    2   0.0125571   0.0079302  -0.0061689   0.0133541  -0.0096513   0.0054724
    3  -0.0007262   0.0018355  -0.0007607  -0.0181735  -0.0112178   0.0104065
           19          20
    1   0.0027005   0.0051284
    2  -0.0084491   0.0026606
    3   0.0052644   0.0074419
 Max gradient component =       7.171E-02
 RMS gradient           =       2.003E-02
 Gradient time:  CPU 0.99 s  wall 0.99 s
 Time for this dynamics step: 4.5 s (CPU) 4.5 s (wall)

TIME STEP #10 (t = 225.000 a.u. = 5.44249 fs)
--------------------------------------
 Instantaneous Temperature = 160.5 K
 ----------------------------------------------------------------
             Standard Nuclear Orientation (Angstroms)
    I     Atom           X                Y                Z
 ----------------------------------------------------------------
    1      C       0.2869870912    -1.4001349651     0.0022012434
    2      C       1.3027819170    -0.4476460614    -0.0454305800
    3      C       1.0736451997     0.9203896510     0.0197576378
    4      C      -0.2710082081     1.3759829373     0.0207451952
    5      C      -1.3387853208     0.4087952801     0.0360104902
    6      C      -1.0941962737    -0.9096264239    -0.0149937930
    7      H       2.3800687259    -0.6843395235    -0.0014511658
    8      H       1.8843255982     1.6484283425     0.0286959260
    9      H      -2.3740056375     0.8488836840     0.1325157416
   10      H      -1.8487966228    -1.6967967833     0.0246856479
   11      C      -0.6144195574     2.8746172059    -0.0096046966
   12      C       0.3530908713     3.8188424813    -0.0222482559
   13      H      -1.6677116603     3.2337920083    -0.0058806727
   14      H       0.1778455285     4.9197139802    -0.0003027660
   15      H       1.4376935168     3.5167513492    -0.0376448566
   16      C       0.6425823675    -2.8556134124    -0.0388309074
   17      C      -0.3565986587    -3.8116238414     0.0068691009
   18      H       1.7160523481    -3.0704621575     0.1219987621
   19      H      -0.1220910832    -4.8923401821     0.1518897531
   20      H      -1.3938181256    -3.5138505130     0.1275441587
 ----------------------------------------------------------------
 Nuclear Repulsion Energy =         447.13647655 hartrees
 There are       35 alpha and       35 beta electrons
 Applying Cartesian multipole field
    Component          Value
    ---------          -----
     (2,0,0)        1.00000E-11
     (0,2,0)        2.00000E-11
     (0,0,2)       -3.00000E-10
 Nucleus-field energy     =     0.0000000315 hartrees
 Guess from superposition of atomic densities
 Warning:  Energy on first SCF cycle will be non-variational
 SAD guess density has 70.000000 electrons
 SCF convergence criterion is 10**(-8)

 -----------------------------------------------------------------------
  General SCF calculation program by
  Eric Jon Sundstrom, Paul Horn, Yuezhi Mao, Dmitri Zuev, Alec White,
  David Stuck, Shaama M.S., Shane Yost, Joonho Lee, David Small,
  Daniel Levine, Susi Lehtola, Hugh Burton, Evgeny Epifanovsky,
  Bang C. Huynh
 -----------------------------------------------------------------------
 Exchange:     0.2000 Hartree-Fock + 0.0800 Slater + 0.7200 B88
 Correlation:  0.1900 VWN1RPA + 0.8100 LYP
 Using SG-1 standard quadrature grid
 A restricted SCF calculation will be
 performed using DIIS
 SCF converges when DIIS error is below 1.0e-08
 ---------------------------------------
  Cycle       Energy         DIIS error
 ---------------------------------------
    1    -381.7335550441      1.35e-01  
    2    -382.2762118618      3.21e-03  
    3    -382.2744362808      3.94e-03  
    4    -382.2826058368      1.19e-03  
    5    -382.2833120602      4.58e-04  
    6    -382.2834238183      7.38e-05  
    7    -382.2834270173      1.69e-05  
    8    -382.2834271671      5.76e-06  
    9    -382.2834271862      1.79e-06  
   10    -382.2834271882      4.88e-07  
   11    -382.2834271883      1.12e-07  
   12    -382.2834271883      6.53e-08  
   13    -382.2834271881      9.27e-09  Convergence criterion met
 ---------------------------------------
 SCF time:   CPU 3.40s  wall 3.00s 
 SCF   energy in the final basis set =     -382.2834271881
 Total energy in the final basis set =     -382.2834271881
 Calculating analytic gradient of the SCF energy
 Gradient of SCF Energy
            1           2           3           4           5           6
    1   0.0207316  -0.0386199   0.0373567   0.0086701   0.0266816  -0.0432312
    2   0.0010435  -0.0043406  -0.0179233  -0.0230568  -0.0737485   0.0670736
    3   0.0182640  -0.0146509   0.0065803   0.0010341  -0.0039578  -0.0080840
            7           8           9          10          11          12
    1   0.0060746  -0.0064896  -0.0171419   0.0112143  -0.0134359  -0.0186414
    2   0.0154041   0.0010929   0.0148628  -0.0060183   0.0001121  -0.0009051
    3   0.0039212   0.0004037   0.0061883   0.0012783  -0.0040822  -0.0006493
           13          14          15          16          17          18
    1  -0.0055206   0.0030353   0.0208714   0.0437646  -0.0524505   0.0055684
    2   0.0139245   0.0148692  -0.0092849   0.0180881  -0.0053979   0.0054640
    3  -0.0007579   0.0020685  -0.0009211  -0.0191788  -0.0120863   0.0108174
           19          20
    1   0.0034204   0.0081420
    2  -0.0131582   0.0018990
    3   0.0062892   0.0075232
 Max gradient component =       7.375E-02
 RMS gradient           =       2.086E-02
 Gradient time:  CPU 0.98 s  wall 0.98 s
 Time for this dynamics step: 4.4 s (CPU) 4.4 s (wall)

TIME STEP #11 (t = 250.000 a.u. = 6.04721 fs)
--------------------------------------
 Instantaneous Temperature = 142.5 K
 ----------------------------------------------------------------
             Standard Nuclear Orientation (Angstroms)
    I     Atom           X                Y                Z
 ----------------------------------------------------------------
    1      C       0.2863244156    -1.4052026065     0.0012819702
    2      C       1.3036191015    -0.4474307161    -0.0490754129
    3      C       1.0744145031     0.9213532370     0.0213187187
    4      C      -0.2708677137     1.3798284195     0.0227471279
    5      C      -1.3409580237     0.4098401114     0.0397631414
    6      C      -1.0964366265    -0.9129209424    -0.0159893408
    7      H       2.3823869435    -0.6885174572    -0.0044232658
    8      H       1.8907444037     1.6449759729     0.0313073788
    9      H      -2.3828044633     0.8515611033     0.1424354834
   10      H      -1.8572281413    -1.6957605238     0.0261949457
   11      C      -0.6160860013     2.8732051902    -0.0103150734
   12      C       0.3519351989     3.8204671505    -0.0244300191
   13      H      -1.6689868488     3.2365030442    -0.0058842849
   14      H       0.1749026395     4.9281167002    -0.0016880895
   15      H       1.4441710825     3.5132025270    -0.0409252729
   16      C       0.6454726110    -2.8536926232    -0.0415007220
   17      C      -0.3533628221    -3.8115566604     0.0083075508
   18      H       1.7151617212    -3.0703402411     0.1258160343
   19      H      -0.1202019635    -4.8952597030     0.1635507232
   20      H      -1.3882876716    -3.5136023249     0.1338560810
 ----------------------------------------------------------------
 Nuclear Repulsion Energy =         446.73971321 hartrees
 There are       35 alpha and       35 beta electrons
 Applying Cartesian multipole field
    Component          Value
    ---------          -----
     (2,0,0)        1.00000E-11
     (0,2,0)        2.00000E-11
     (0,0,2)       -3.00000E-10
 Nucleus-field energy     =     0.0000000315 hartrees
 Guess from superposition of atomic densities
 Warning:  Energy on first SCF cycle will be non-variational
 SAD guess density has 70.000000 electrons
 SCF convergence criterion is 10**(-8)

 -----------------------------------------------------------------------
  General SCF calculation program by
  Eric Jon Sundstrom, Paul Horn, Yuezhi Mao, Dmitri Zuev, Alec White,
  David Stuck, Shaama M.S., Shane Yost, Joonho Lee, David Small,
  Daniel Levine, Susi Lehtola, Hugh Burton, Evgeny Epifanovsky,
  Bang C. Huynh
 -----------------------------------------------------------------------
 Exchange:     0.2000 Hartree-Fock + 0.0800 Slater + 0.7200 B88
 Correlation:  0.1900 VWN1RPA + 0.8100 LYP
 Using SG-1 standard quadrature grid
 A restricted SCF calculation will be
 performed using DIIS
 SCF converges when DIIS error is below 1.0e-08
 ---------------------------------------
  Cycle       Energy         DIIS error
 ---------------------------------------
    1    -381.7042448261      1.34e-01  
    2    -382.2753084963      3.20e-03  
    3    -382.2736383445      3.91e-03  
    4    -382.2816472135      1.21e-03  
    5    -382.2823700097      4.65e-04  
    6    -382.2824853466      7.32e-05  
    7    -382.2824885218      1.69e-05  
    8    -382.2824886703      5.96e-06  
    9    -382.2824886908      1.80e-06  
   10    -382.2824886928      4.84e-07  
   11    -382.2824886929      1.18e-07  
   12    -382.2824886929      6.74e-08  
   13    -382.2824886927      9.10e-09  Convergence criterion met
 ---------------------------------------
 SCF time:   CPU 3.39s  wall 4.00s 
 SCF   energy in the final basis set =     -382.2824886927
 Total energy in the final basis set =     -382.2824886927
 Calculating analytic gradient of the SCF energy
 Gradient of SCF Energy
            1           2           3           4           5           6
    1   0.0197624  -0.0365110   0.0362959   0.0101559   0.0272938  -0.0424041
    2  -0.0062228  -0.0020097  -0.0168656  -0.0183609  -0.0716172   0.0621783
    3   0.0192442  -0.0155699   0.0069683   0.0009949  -0.0041361  -0.0087969
            7           8           9          10          11          12
    1   0.0077911  -0.0052439  -0.0215737   0.0099580  -0.0146243  -0.0215603
    2   0.0143888   0.0012264   0.0165555  -0.0062318  -0.0047589  -0.0017519
    3   0.0040946   0.0004713   0.0068772   0.0013780  -0.0043667  -0.0006814
           13          14          15          16          17          18
    1  -0.0059956   0.0019848   0.0262977   0.0456996  -0.0541227   0.0036315
    2   0.0146890   0.0197481  -0.0114238   0.0221556  -0.0026465   0.0054036
    3  -0.0007791   0.0022539  -0.0010417  -0.0198765  -0.0128287   0.0110276
           19          20
    1   0.0035747   0.0095903
    2  -0.0159307   0.0014745
    3   0.0071015   0.0076655
 Max gradient component =       7.162E-02
 RMS gradient           =       2.092E-02
 Gradient time:  CPU 0.97 s  wall 0.97 s
 Time for this dynamics step: 4.4 s (CPU) 4.4 s (wall)

TIME STEP #12 (t = 275.000 a.u. = 6.65193 fs)
--------------------------------------
 Instantaneous Temperature = 133.0 K
 ----------------------------------------------------------------
             Standard Nuclear Orientation (Angstroms)
    I     Atom           X                Y                Z
 ----------------------------------------------------------------
    1      C       0.2853629410    -1.4101761610     0.0000717329
    2      C       1.3050083168    -0.4471849856    -0.0524848358
    3      C       1.0746350277     0.9225718241     0.0227744418
    4      C      -0.2708807719     1.3839515111     0.0247340183
    5      C      -1.3435433983     0.4119677650     0.0435783280
    6      C      -1.0980358464    -0.9171555710    -0.0168518831
    7      H       2.3833025652    -0.6952857329    -0.0081324923
    8      H       1.8981072372     1.6413028227     0.0338339766
    9      H      -2.3877194685     0.8512581066     0.1511171542
   10      H      -1.8674523477    -1.6936023756     0.0274561636
   11      C      -0.6175313323     2.8718651269    -0.0109594277
   12      C       0.3511055088     3.8221183083    -0.0266014794
   13      H      -1.6691826758     3.2365696853    -0.0057476333
   14      H       0.1716024414     4.9329642550    -0.0034791703
   15      H       1.4459144010     3.5117102808    -0.0440181650
   16      C       0.6476718957    -2.8521068180    -0.0438700117
   17      C      -0.3493086727    -3.8114494661     0.0099399648
   18      H       1.7136173343    -3.0711911111     0.1276480661
   19      H      -0.1189563786    -4.8953112933     0.1739332473
   20      H      -1.3844837174    -3.5136195870     0.1387880217
 ----------------------------------------------------------------
 Nuclear Repulsion Energy =         446.40606141 hartrees
 There are       35 alpha and       35 beta electrons
 Applying Cartesian multipole field
    Component          Value
    ---------          -----
     (2,0,0)        1.00000E-11
     (0,2,0)        2.00000E-11
     (0,0,2)       -3.00000E-10
 Nucleus-field energy     =     0.0000000315 hartrees
 Guess from superposition of atomic densities
 Warning:  Energy on first SCF cycle will be non-variational
 SAD guess density has 70.000000 electrons
 SCF convergence criterion is 10**(-8)

 -----------------------------------------------------------------------
  General SCF calculation program by
  Eric Jon Sundstrom, Paul Horn, Yuezhi Mao, Dmitri Zuev, Alec White,
[...]
   17      C      -0.2489462711    -3.8291657879     0.0792028541
   18      H       1.6992907393    -3.1183143291    -0.1406874296
   19      H       0.0347818595    -4.8769846451     0.1618736143
   20      H      -1.3238973499    -3.6007950717    -0.0051565532
 ----------------------------------------------------------------
 Nuclear Repulsion Energy =         446.47719733 hartrees
 There are       35 alpha and       35 beta electrons
 Applying Cartesian multipole field
    Component          Value
    ---------          -----
     (2,0,0)        1.00000E-11
     (0,2,0)        2.00000E-11
     (0,0,2)       -3.00000E-10
 Nucleus-field energy     =     0.0000000316 hartrees
 Guess from superposition of atomic densities
 Warning:  Energy on first SCF cycle will be non-variational
 SAD guess density has 70.000000 electrons
 SCF convergence criterion is 10**(-8)

 -----------------------------------------------------------------------
  General SCF calculation program by
  Eric Jon Sundstrom, Paul Horn, Yuezhi Mao, Dmitri Zuev, Alec White,
  David Stuck, Shaama M.S., Shane Yost, Joonho Lee, David Small,
  Daniel Levine, Susi Lehtola, Hugh Burton, Evgeny Epifanovsky,
  Bang C. Huynh
 -----------------------------------------------------------------------
 Exchange:     0.2000 Hartree-Fock + 0.0800 Slater + 0.7200 B88
 Correlation:  0.1900 VWN1RPA + 0.8100 LYP
 Using SG-1 standard quadrature grid
 A restricted SCF calculation will be
 performed using DIIS
 SCF converges when DIIS error is below 1.0e-08
 ---------------------------------------
  Cycle       Energy         DIIS error
 ---------------------------------------
    1    -381.7952090926      1.36e-01  
    2    -382.2861860429      3.11e-03  
    3    -382.2865554608      3.35e-03  
    4    -382.2922815161      1.10e-03  
    5    -382.2929100855      3.23e-04  
    6    -382.2929656106      4.07e-05  
    7    -382.2929666167      6.26e-06  
    8    -382.2929666320      4.21e-06  
    9    -382.2929666435      6.86e-07  
   10    -382.2929666437      2.57e-07  
   11    -382.2929666438      1.04e-07  
   12    -382.2929666437      1.86e-08  
   13    -382.2929666437      9.98e-09  Convergence criterion met
 ---------------------------------------
 SCF time:   CPU 3.28s  wall 3.00s 
 SCF   energy in the final basis set =     -382.2929666437
 Total energy in the final basis set =     -382.2929666437
 Calculating analytic gradient of the SCF energy
 Gradient of SCF Energy
            1           2           3           4           5           6
    1  -0.0161151   0.0241033  -0.0033103  -0.0305048  -0.0025306   0.0092330
    2   0.0021326  -0.0036264   0.0093844   0.0308853   0.0377594  -0.0559520
    3  -0.0026488  -0.0007838   0.0046170  -0.0000192   0.0103403  -0.0058488
            7           8           9          10          11          12
    1  -0.0055281   0.0062401   0.0005081  -0.0058764   0.0180474  -0.0092863
    2  -0.0116125   0.0017123  -0.0055960   0.0064424   0.0262764  -0.0324663
    3  -0.0032524   0.0018349   0.0001534  -0.0010913  -0.0075402   0.0022066
           13          14          15          16          17          18
    1   0.0054740  -0.0036686   0.0022554  -0.0099555   0.0309425  -0.0060138
    2  -0.0156198   0.0039640  -0.0001089  -0.0256113   0.0245788  -0.0043673
    3   0.0009025   0.0002426  -0.0001830   0.0088842   0.0055653  -0.0058285
           19          20
    1  -0.0001466  -0.0038676
    2   0.0063330   0.0054920
    3   0.0014656  -0.0090162
 Max gradient component =       5.595E-02
 RMS gradient           =       1.483E-02
 Gradient time:  CPU 0.95 s  wall 0.95 s
 Time for this dynamics step: 4.2 s (CPU) 4.2 s (wall)

TIME STEP #33 (t = 800.000 a.u. = 19.35107 fs)
--------------------------------------
 Instantaneous Temperature = 241.7 K
 ----------------------------------------------------------------
             Standard Nuclear Orientation (Angstroms)
    I     Atom           X                Y                Z
 ----------------------------------------------------------------
    1      C       0.2482552513    -1.4123520622    -0.0866954150
    2      C       1.3201776458    -0.4538570598    -0.0714225664
    3      C       1.0460344676     0.9228129270     0.0237923283
    4      C      -0.3159645140     1.4317701135     0.0663289810
    5      C      -1.3396485825     0.4635506891     0.1093511719
    6      C      -1.0781971972    -0.9646017732     0.0084346121
    7      H       2.3157241663    -0.8967658868    -0.1722786826
    8      H       1.8930345446     1.6353423961     0.0443917133
    9      H      -2.3807430841     0.7551127628     0.1491055020
   10      H      -1.9652835372    -1.6142438631    -0.0020410706
   11      C      -0.5935585498     2.8824914203    -0.0035198616
   12      C       0.3188868050     3.8420768443    -0.0707986712
   13      H      -1.6680347936     3.0451566224     0.0121739122
   14      H       0.0076301085     4.8878789943    -0.1227053921
   15      H       1.3838681259     3.6527403689    -0.0815440539
   16      C       0.6411067629    -2.8650662531    -0.0432761017
   17      C      -0.2479304862    -3.8357065721     0.0835953834
   18      H       1.7018584723    -3.1141364835    -0.1565847437
   19      H       0.0481828480    -4.8750947745     0.1526219327
   20      H      -1.3262542478    -3.6083728659    -0.0111453536
 ----------------------------------------------------------------
 Nuclear Repulsion Energy =         446.70842769 hartrees
 There are       35 alpha and       35 beta electrons
 Applying Cartesian multipole field
    Component          Value
    ---------          -----
     (2,0,0)        1.00000E-11
     (0,2,0)        2.00000E-11
     (0,0,2)       -3.00000E-10
 Nucleus-field energy     =     0.0000000316 hartrees
 Guess from superposition of atomic densities
 Warning:  Energy on first SCF cycle will be non-variational
 SAD guess density has 70.000000 electrons
 SCF convergence criterion is 10**(-8)

 -----------------------------------------------------------------------
  General SCF calculation program by
  Eric Jon Sundstrom, Paul Horn, Yuezhi Mao, Dmitri Zuev, Alec White,
  David Stuck, Shaama M.S., Shane Yost, Joonho Lee, David Small,
  Daniel Levine, Susi Lehtola, Hugh Burton, Evgeny Epifanovsky,
  Bang C. Huynh
 -----------------------------------------------------------------------
 Exchange:     0.2000 Hartree-Fock + 0.0800 Slater + 0.7200 B88
 Correlation:  0.1900 VWN1RPA + 0.8100 LYP
 Using SG-1 standard quadrature grid
 A restricted SCF calculation will be
 performed using DIIS
 SCF converges when DIIS error is below 1.0e-08
 ---------------------------------------
  Cycle       Energy         DIIS error
 ---------------------------------------
    1    -381.8178731276      1.36e-01  
    2    -382.2871231123      3.15e-03  
    3    -382.2870420920      3.49e-03  
    4    -382.2933437139      1.10e-03  
    5    -382.2939643400      3.29e-04  
    6    -382.2940220030      4.07e-05  
    7    -382.2940230033      6.70e-06  
    8    -382.2940230183      4.84e-06  
    9    -382.2940230330      8.02e-07  
   10    -382.2940230333      3.60e-07  
   11    -382.2940230334      1.15e-07  
   12    -382.2940230334      3.67e-08  
   13    -382.2940230332      9.41e-09  Convergence criterion met
 ---------------------------------------
 SCF time:   CPU 3.26s  wall 3.00s 
 SCF   energy in the final basis set =     -382.2940230332
 Total energy in the final basis set =     -382.2940230332
 Calculating analytic gradient of the SCF energy
 Gradient of SCF Energy
            1           2           3           4           5           6
    1  -0.0154915   0.0225794  -0.0012050  -0.0336462  -0.0106736   0.0087636
    2   0.0052243  -0.0052782   0.0033209   0.0295530   0.0366715  -0.0476580
    3  -0.0050797   0.0006646   0.0037402   0.0001605   0.0106572  -0.0042850
            7           8           9          10          11          12
    1  -0.0078177   0.0059108   0.0131311  -0.0059661   0.0120397   0.0040329
    2  -0.0095997   0.0037397  -0.0085088   0.0042513   0.0244851  -0.0233633
    3  -0.0033100   0.0018706  -0.0008271  -0.0014101  -0.0070335   0.0015817
           13          14          15          16          17          18
    1   0.0087956  -0.0015212  -0.0104357  -0.0034102   0.0269727  -0.0049434
    2  -0.0156980  -0.0040949   0.0024097  -0.0201724   0.0111978  -0.0043830
    3   0.0008653   0.0004220   0.0000123   0.0097361   0.0085085  -0.0067163
           19          20
    1  -0.0004364  -0.0066788
    2   0.0113014   0.0066016
    3   0.0005992  -0.0101565
 Max gradient component =       4.766E-02
 RMS gradient           =       1.353E-02
 Gradient time:  CPU 0.94 s  wall 0.94 s
 Time for this dynamics step: 4.2 s (CPU) 4.2 s (wall)

TIME STEP #34 (t = 825.000 a.u. = 19.95580 fs)
--------------------------------------
 Instantaneous Temperature = 252.9 K
 ----------------------------------------------------------------
             Standard Nuclear Orientation (Angstroms)
    I     Atom           X                Y                Z
 ----------------------------------------------------------------
    1      C       0.2480556758    -1.4094778789    -0.0921578987
    2      C       1.3171266654    -0.4544789675    -0.0709443500
    3      C       1.0451208626     0.9195094478     0.0226160095
    4      C      -0.3169613516     1.4294955786     0.0683694923
    5      C      -1.3377555926     0.4606899411     0.1110735698
    6      C      -1.0778696074    -0.9577714477     0.0113977890
    7      H       2.3138422995    -0.8866259240    -0.1778684172
    8      H       1.8831837553     1.6429249429     0.0419968845
    9      H      -2.3653384404     0.7551121656     0.1436762625
   10      H      -1.9561116600    -1.6221974032    -0.0038977946
   11      C      -0.5939855621     2.8815612383    -0.0019422648
   12      C       0.3185069472     3.8460158701    -0.0730981381
   13      H      -1.6653864348     3.0509191724     0.0121109791
   14      H       0.0023523949     4.8793348438    -0.1304847097
   15      H       1.3709071176     3.6637002245    -0.0823793009
   16      C       0.6431512292    -2.8631848656    -0.0430032370
   17      C      -0.2473225173    -3.8424166628     0.0878592670
   18      H       1.7053161385    -3.1091695887    -0.1712729591
   19      H       0.0616623921    -4.8752394467     0.1432623872
   20      H      -1.3274087908    -3.6171391094    -0.0153057237
 ----------------------------------------------------------------
 Nuclear Repulsion Energy =         446.91221950 hartrees
 There are       35 alpha and       35 beta electrons
 Applying Cartesian multipole field
    Component          Value
    ---------          -----
     (2,0,0)        1.00000E-11
     (0,2,0)        2.00000E-11
     (0,0,2)       -3.00000E-10
 Nucleus-field energy     =     0.0000000315 hartrees
 Guess from superposition of atomic densities
 Warning:  Energy on first SCF cycle will be non-variational
 SAD guess density has 70.000000 electrons
 SCF convergence criterion is 10**(-8)

 -----------------------------------------------------------------------
  General SCF calculation program by
  Eric Jon Sundstrom, Paul Horn, Yuezhi Mao, Dmitri Zuev, Alec White,
  David Stuck, Shaama M.S., Shane Yost, Joonho Lee, David Small,
  Daniel Levine, Susi Lehtola, Hugh Burton, Evgeny Epifanovsky,
  Bang C. Huynh
 -----------------------------------------------------------------------
 Exchange:     0.2000 Hartree-Fock + 0.0800 Slater + 0.7200 B88
 Correlation:  0.1900 VWN1RPA + 0.8100 LYP
 Using SG-1 standard quadrature grid
 A restricted SCF calculation will be
 performed using DIIS
 SCF converges when DIIS error is below 1.0e-08
 ---------------------------------------
  Cycle       Energy         DIIS error
 ---------------------------------------
    1    -381.8368222111      1.36e-01  
    2    -382.2872186240      3.19e-03  
    3    -382.2865938330      3.66e-03  
    4    -382.2935928979      1.09e-03  
    5    -382.2942032803      3.39e-04  
    6    -382.2942640728      4.20e-05  
    7    -382.2942651212      8.47e-06  
    8    -382.2942651444      5.95e-06  
    9    -382.2942651657      7.68e-07  
   10    -382.2942651660      3.60e-07  
   11    -382.2942651661      1.05e-07  
   12    -382.2942651661      3.54e-08  
   13    -382.2942651659      8.86e-09  Convergence criterion met
 ---------------------------------------
 SCF time:   CPU 3.27s  wall 4.00s 
 SCF   energy in the final basis set =     -382.2942651659
 Total energy in the final basis set =     -382.2942651659
 Calculating analytic gradient of the SCF energy
 Gradient of SCF Energy
            1           2           3           4           5           6
    1  -0.0145181   0.0199000   0.0015825  -0.0361645  -0.0169503   0.0078700
    2   0.0079134  -0.0064698  -0.0025948   0.0277788   0.0341438  -0.0378199
    3  -0.0075382   0.0021384   0.0028452   0.0003553   0.0106826  -0.0025830
            7           8           9          10          11          12
    1  -0.0093301   0.0048988   0.0240289  -0.0059639   0.0068551   0.0167117
    2  -0.0076827   0.0052777  -0.0109258   0.0018333   0.0216314  -0.0132194
    3  -0.0033696   0.0018781  -0.0016155  -0.0017439  -0.0064412   0.0008245
           13          14          15          16          17          18
    1   0.0106179   0.0008221  -0.0223480   0.0028121   0.0209044  -0.0032330
    2  -0.0151178  -0.0122395   0.0046254  -0.0140769  -0.0004259  -0.0044189
    3   0.0008249   0.0006904   0.0001766   0.0104405   0.0110984  -0.0075634
           19          20
    1  -0.0004096  -0.0080861
    2   0.0144864   0.0073012
    3  -0.0000650  -0.0110352
 Max gradient component =       3.782E-02
 RMS gradient           =       1.312E-02
 Gradient time:  CPU 0.96 s  wall 0.96 s
 Time for this dynamics step: 4.2 s (CPU) 4.3 s (wall)

TIME STEP #35 (t = 850.000 a.u. = 20.56052 fs)
--------------------------------------
 Instantaneous Temperature = 255.8 K
 ----------------------------------------------------------------
             Standard Nuclear Orientation (Angstroms)
    I     Atom           X                Y                Z
 ----------------------------------------------------------------
    1      C       0.2480756085    -1.4067233430    -0.0975064080
    2      C       1.3137748048    -0.4550030546    -0.0704984652
    3      C       1.0441833302     0.9162452014     0.0213966726
    4      C      -0.3174113965     1.4268010400     0.0704046311
    5      C      -1.3356063214     0.4573129523     0.1126344511
    6      C      -1.0776610091    -0.9503693014     0.0144000204
    7      H       2.3136400897    -0.8751028776    -0.1828515313
    8      H       1.8724510547     1.6495573667     0.0392639547
    9      H      -2.3542596112     0.7570784824     0.1385378491
   10      H      -1.9458661279    -1.6304809754    -0.0054405774
   11      C      -0.5945162204     2.8803039981    -0.0002672800
   12      C       0.3178744149     3.8501547680    -0.0754100711
   13      H      -1.6646495664     3.0594033158     0.0118995491
   14      H      -0.0030733216     4.8729941217    -0.1383883249
   15      H       1.3619693197     3.6738273930    -0.0832463386
   16      C       0.6451531776    -2.8610906413    -0.0428882282
   17      C      -0.2470306143    -3.8491203148     0.0919553471
   18      H       1.7093558332    -3.1034071806    -0.1845995691
   19      H       0.0752156675    -4.8779920398     0.1339145351
   20      H      -1.3271076317    -3.6272197541    -0.0174794842
 ----------------------------------------------------------------
 Nuclear Repulsion Energy =         447.06700876 hartrees
 There are       35 alpha and       35 beta electrons
 Applying Cartesian multipole field
    Component          Value
    ---------          -----
     (2,0,0)        1.00000E-11
     (0,2,0)        2.00000E-11
     (0,0,2)       -3.00000E-10
 Nucleus-field energy     =     0.0000000315 hartrees
 Guess from superposition of atomic densities
 Warning:  Energy on first SCF cycle will be non-variational
 SAD guess density has 70.000000 electrons
 SCF convergence criterion is 10**(-8)

 -----------------------------------------------------------------------
  General SCF calculation program by
  Eric Jon Sundstrom, Paul Horn, Yuezhi Mao, Dmitri Zuev, Alec White,
  David Stuck, Shaama M.S., Shane Yost, Joonho Lee, David Small,
  Daniel Levine, Susi Lehtola, Hugh Burton, Evgeny Epifanovsky,
  Bang C. Huynh
 -----------------------------------------------------------------------
 Exchange:     0.2000 Hartree-Fock + 0.0800 Slater + 0.7200 B88
 Correlation:  0.1900 VWN1RPA + 0.8100 LYP
 Using SG-1 standard quadrature grid
 A restricted SCF calculation will be
 performed using DIIS
 SCF converges when DIIS error is below 1.0e-08
 ---------------------------------------
  Cycle       Energy         DIIS error
 ---------------------------------------
    1    -381.8493953220      1.37e-01  
    2    -382.2870941207      3.23e-03  
    3    -382.2859031938      3.82e-03  
    4    -382.2936170788      1.08e-03  
    5    -382.2942192393      3.50e-04  
    6    -382.2942838696      4.48e-05  
    7    -382.2942850300      1.09e-05  
    8    -382.2942850772      6.23e-06  
    9    -382.2942851004      7.04e-07  
   10    -382.2942851007      3.47e-07  
   11    -382.2942851008      9.35e-08  
   12    -382.2942851008      2.92e-08  
   13    -382.2942851007      9.06e-09  Convergence criterion met
 ---------------------------------------
 SCF time:   CPU 3.29s  wall 3.00s 
 SCF   energy in the final basis set =     -382.2942851007
 Total energy in the final basis set =     -382.2942851007
 Calculating analytic gradient of the SCF energy
 Gradient of SCF Energy
            1           2           3           4           5           6
    1  -0.0132422   0.0158264   0.0049380  -0.0380129  -0.0189522   0.0064366
    2   0.0102134  -0.0070736  -0.0081512   0.0255186   0.0294651  -0.0265778
    3  -0.0099966   0.0036623   0.0019497   0.0005673   0.0103694  -0.0007534
            7           8           9          10          11          12
    1  -0.0097510   0.0032159   0.0307860  -0.0057169   0.0032493   0.0262921
    2  -0.0060133   0.0062387  -0.0121772  -0.0006389   0.0179495  -0.0033368
    3  -0.0034762   0.0018571  -0.0021707  -0.0020849  -0.0057862   0.0000520
           13          14          15          16          17          18
    1   0.0105385   0.0029174  -0.0309171   0.0085757   0.0127062  -0.0011263
    2  -0.0138081  -0.0190855   0.0060943  -0.0077488  -0.0091709  -0.0044172
    3   0.0007781   0.0009688   0.0002928   0.0110233   0.0132551  -0.0083570
           19          20
    1   0.0001700  -0.0079335
    2   0.0151883   0.0075314
    3  -0.0005510  -0.0115998
 Max gradient component =       3.801E-02
 RMS gradient           =       1.310E-02
 Gradient time:  CPU 0.94 s  wall 0.95 s
 Time for this dynamics step: 4.3 s (CPU) 4.3 s (wall)

=============== TIME STEPS COMPLETED ==================

Step-to-Step energy fluctuations, |E(n) - E(n-1)|
Mean: 2.661e-06   Max: 6.981e-05   RMS: 3.748e-05
Overall energy fluctuations, |E(n) - E(0)|
Mean: 1.084e-04   Max: 1.990e-04   RMS: 5.635e-05   RMS(dE)/RMS(dV): 1.299e-02
Kinetic energy fluctuations, |T(n) - V(0)|
Mean: -1.029e-02   Max: 1.768e-02   RMS: 4.296e-03
Potential energy fluctuations, |V(n) - V(0)|
Mean: 1.040e-02   Max: 1.787e-02   RMS: 4.338e-03


 Total job time:  158.59s(wall), 158.36s(cpu) 
 Sun Sep 19 10:17:43 2021

        *************************************************************
        *                                                           *
        *  Thank you very much for using Q-Chem.  Have a nice day.  *
        *                                                           *
        *************************************************************


