Jobname.Temp
FREQ      R                             STO-3G              
Number of atoms                            I                3
Charge                                     I                0
Multiplicity                               I                1
Number of electrons                        I               10
Number of alpha electrons                  I                5
Number of beta electrons                   I                5
Atomic numbers                             I   N=           3
           8           1           1
Current cartesian coordinates              R   N=           9
 -4.21654159E-17  2.20235107E-17  2.25178583E-01 -1.49411036E+00 -1.60952237E-16
 -9.00714333E-01  1.49411036E+00 -1.52358492E-17 -9.00714333E-01
Nuclear charges                            R   N=           3
  8.00000000E+00  1.00000000E+00  1.00000000E+00
Number of basis functions                  I                7
Number of contracted shells                I                4
Number of primitive shells                 I               12
Highest angular momentum                   I                1
Largest degree of contraction              I                3
Shell types                                I   N=           4
           0          -1           0           0
Number of primitives per shell             I   N=           4
           3           3           3           3
Shell to atom map                          I   N=           4
           1           1           2           3
Primitive exponents                        R   N=          12
  1.30709320E+02  2.38088610E+01  6.44360830E+00  5.03315130E+00  1.16959610E+00
  3.80389000E-01  3.42525091E+00  6.23913730E-01  1.68855400E-01  3.42525091E+00
  6.23913730E-01  1.68855400E-01
Contraction coefficients                   R   N=          12
  1.54328969E-01  5.35328136E-01  4.44634536E-01 -9.99672287E-02  3.99512825E-01
  7.00115461E-01  1.54328971E-01  5.35328142E-01  4.44634542E-01  1.54328971E-01
  5.35328142E-01  4.44634542E-01
P(S=P) Contraction coefficients            R   N=          12
  0.00000000E+00  0.00000000E+00  0.00000000E+00  1.55916268E-01  6.07683714E-01
  3.91957386E-01  0.00000000E+00  0.00000000E+00  0.00000000E+00  0.00000000E+00
  0.00000000E+00  0.00000000E+00
Coordinates of each shell                  R   N=          12
 -4.21654159E-17  2.20235107E-17  2.25178583E-01 -4.21654159E-17  2.20235107E-17
  2.25178583E-01 -1.49411036E+00 -1.60952237E-16 -9.00714333E-01  1.49411036E+00
 -1.52358492E-17 -9.00714333E-01
Overlap Matrix                             R   N=          28
  1.00000000E+00  2.36703937E-01  1.00000000E+00  8.05803617E-34 -7.56496711E-33
  1.00000000E+00 -2.40538696E-33  1.92644297E-33 -1.92726265E-65  1.00000000E+00
 -1.35620957E-17  4.48705985E-17 -3.47184774E-49  1.94738903E-49  1.00000000E+00
  4.99275403E-02  4.53531138E-01 -3.04940367E-01 -3.73444244E-17 -2.29789048E-01
  1.00000000E+00  4.99275403E-02  4.53531138E-01  3.04940367E-01 -7.60444687E-18
 -2.29789048E-01  2.28265950E-01  1.00000000E+00
Core Hamiltonian Matrix                    R   N=          28
 -3.26842998E+01 -7.60413751E+00 -9.30134234E+00  0.00000000E+00  0.00000000E+00
 -7.57797376E+00  0.00000000E+00  0.00000000E+00  0.00000000E+00 -7.43024427E+00
  1.74670518E-02  2.07785322E-01  0.00000000E+00  0.00000000E+00 -7.51413153E+00
 -1.61667742E+00 -3.53328195E+00  1.96886646E+00 -2.53946188E-17  1.54779462E+00
 -4.93977743E+00 -1.61667742E+00 -3.53328195E+00 -1.96886646E+00 -5.17110740E-18
  1.54779462E+00 -1.43529223E+00 -4.93977743E+00
Number of independent functions            I                7
Alpha MO coefficients                      R   N=          49
 -9.93472180E-01 -2.92630978E-02  1.65758503E-16  1.90628593E-17  4.43453689E-03
  6.80735295E-03  6.80735295E-03 -2.29055528E-01  8.12308301E-01 -1.70200412E-15
  6.24654188E-17 -1.78648303E-01  1.70909070E-01  1.70909070E-01 -6.08222784E-16
  2.24955424E-15 -6.04888524E-01 -2.63311268E-16  6.70452936E-15  4.45063852E-01
 -4.45063852E-01  1.20350571E-01 -5.93902336E-01 -2.32394613E-15 -5.16446828E-16
 -7.52476311E-01  2.88793789E-01  2.88793789E-01 -7.09878321E-17  3.49377967E-16
 -2.18113547E-16 -1.00000000E+00 -6.79701797E-17 -4.90852688E-16  7.56038659E-18
 -1.26196918E-01  8.17140159E-01 -1.54761305E-14 -5.73137201E-17 -7.42826240E-01
 -7.72835359E-01 -7.72835359E-01  2.38543227E-15 -1.42924608E-14 -9.75504470E-01
 -6.38852720E-17  9.03117615E-15 -8.09638655E-01  8.09638655E-01
Alpha Orbital Energies                     R   N=           7
 -1.88373821E+01 -9.19177807E-01 -4.33292759E-01 -2.28529695E-01 -1.41745675E-01
  3.24301304E-01  4.41004273E-01
Total SCF Density                          R   N=          28
  2.10787533E+00 -4.56936236E-01  2.02684218E+00  6.26791460E-16 -2.73587038E-15
  7.31780253E-01 -4.88266163E-17  1.50486999E-17  7.54775022E-16  2.00000000E+00
 -1.08092322E-01  6.03300342E-01 -4.00396649E-15  8.91018755E-16  1.19631096E+00
 -2.23081715E-02 -6.57673074E-02 -5.38428033E-01  4.70642797E-16 -4.95625826E-01
  6.21479870E-01 -2.23081715E-02 -6.57673074E-02  5.38428033E-01 -5.74220422E-17
 -4.95625826E-01 -1.70847459E-01  6.21479870E-01
Pure Switching                             I                1
Dipole_Data                                R   N=           3
  3.34711488E-14 -7.61232421E-16 -1.61672610E+00
Quadrupole_Data                            R   N=           6
 -4.31979199E+00 -3.42213144E-16 -6.12585544E+00 -1.05510517E-14 -6.30005953E-16
 -5.41482780E+00
Octapole_Data                              R   N=          10
  3.52893766E-14 -2.26471192E-16  5.52658786E-15 -3.15768096E-16 -5.57351819E-01
 -1.34826799E-16  2.35138692E-02  1.34636317E-14 -3.16355109E-16 -9.68937804E-02
Hexadecapole_Data                          R   N=          15
 -6.87713028E+00 -1.40950391E-16 -1.86429291E+00 -2.20383889E-16 -3.26616235E+00
 -1.58308438E-14 -5.38430846E-17 -2.24256977E-15 -3.19656419E-16 -1.76711709E+00
 -5.58290825E-17 -1.41530650E+00 -9.90291265E-15 -3.28886634E-16 -5.01252356E+00
Cartesian Force Constants                  R   N=          45
  7.92070214E-01 -4.69190489E-16 -6.01381402E-02 -1.22581510E-14 -1.69482479E-15
  5.15132508E-01 -3.96035107E-01  4.79381001E-16 -2.05818548E-01  4.14887439E-01
  4.72927500E-16  3.00690701E-02  1.65548977E-15 -5.17371989E-16 -1.94027143E-02
 -3.21068608E-01  1.63293526E-15 -2.57566254E-01  2.63443578E-01 -1.62725457E-15
  2.45335036E-01 -3.96035107E-01 -1.14478654E-17  2.05818548E-01 -1.88523323E-02
  4.15160961E-17  5.76250304E-02  4.14887439E-01 -7.17347035E-18  3.00690701E-02
  4.15662541E-17  3.71030231E-17 -1.06663557E-02 -4.41818767E-18 -3.02407167E-17
 -1.94027143E-02  3.21068608E-01  6.28381312E-17 -2.57566254E-01 -5.76250304E-02
 -2.34524066E-17  1.22312182E-02 -2.63443578E-01 -3.93515141E-17  2.45335036E-01
