
 MPP nodes  nproc
 leo          1
 ga_uses_ma=false, calling ma_init with nominal heap.
 GA-space will be limited to   8.0 MW (determined by -G option)

 Primary working directories:    /scratch/langner
 Secondary working directories:  /scratch/langner
 
 CPU=
 ia64 1500.000000:1500.000000:1500.000000:1500.000000:1500.000000:1500.000000:15
 00.000000:1500.000000:1500.000000:1500.000000:1500.000 MHz

 MPP tuning parameters: Latency=     0 Microseconds,   Broadcast speed=    0 MB/sec
 default implementation of scratch files=df  

 ***,C big basis
 gprint,basis,orbital
 basis=aug-cc-pCVQZ
 cartesian
 geometry={nosym,angstrom;
  c  6.0  -1.4152533224   0.2302217854   0.0000000000
 }
  
 hf
 orbprint,9999

 Variables initialized (517), CPU time= 0.01 sec
 Commands  initialized (293), CPU time= 0.02 sec, 436 directives.
 Default parameters read. Elapsed time= 0.07 sec
 Checking input...
 Passed
1


                                         ***  PROGRAM SYSTEM MOLPRO  ***
                         Copyright, University College Cardiff Consultants Limited, 2004

                                    Version 2006.1 linked 14 Jun 2007 10:29:35


 **********************************************************************************************************************************
 LABEL *   C big basis                                                                   
 Linux-2.6.5-7.283-sn2/leo(ia64) 64 bit mpp version (ifort9.1/scs_i8)                    DATE:  24-Jun-07         TIME: 01:39:08  
 **********************************************************************************************************************************

 Installed patches: acml acml_mv arch_ia64_2 bccd_save bench_nocheck2 bench_verybig
                    blas0_cgemm bug1253 bug1292 bug1295 casvb_data citation
                    cleanup_files cpp_lmax cube cube_delta_oprd dma_nuclear dmp2fix2
                    find_print fix1184 fix1187-9 fix1191 fix1234 fix1237b
                    fix1239 fix1246 fix1249 fix1251 fix1255 fix1315
                    fix1326 fix1326a fix1327 fix1331 fix1348 fix1366
                    fix1369 fix1370 fix1371 fix1399 fix1408 fix766b
                    fujitsu_fflush ga_version get_occsym getoptlong grep_makerc h2_example
                    ia64tuning ibm_ldip ifort64 kallay_url2 latex2html lhf_hybrid
                    mac_g95 makerc_mkl mcfrozen2 mcscf_hessian mkl9 mpiexec
                    mpirunenv4 mppbench_nocheck mppx_fence mrcc_nofci nec_config optg_directives
                    ppc64_parse sapt_bugfix2 sapt_icpks subcitrdm_format sysinfoa testjob_report
                    tru64_1 tru64_parse2 uhf_conv xt3_gcc
 **********************************************************************************************************************************


 Variable memory set to  200000000 words,  buffer space   230000 words
 
 SETTING BASIS          =    AUG-CC-PCVQZ


 Recomputing integrals since basis changed


 Using cartesian basis functions

 Library entry C      S aug-cc-pCVQZ         selected for orbital group  1
 Library entry C      P aug-cc-pCVQZ         selected for orbital group  1
 Library entry C      D aug-cc-pCVQZ         selected for orbital group  1
 Library entry C      F aug-cc-pCVQZ         selected for orbital group  1
 Library entry C      G aug-cc-pCVQZ         selected for orbital group  1

1PROGRAM * SEWARD (Integral evaluation for generally contracted gaussian basis sets)     Author: Roland Lindh, 1990

 Geometry written to block  1 of record 700

 Orientation using atomic masses  
 Molecule type: Atom
 Rotational constants:       0.0000000      0.0000000      0.0000000 GHz

 Point group  C1  



 ATOMIC COORDINATES

 NR  ATOM    CHARGE       X              Y              Z

   1  C       6.00    0.000000000    0.000000000    0.000000000


 BASIS DATA

   Nr Sym  Nuc  Type         Exponents   Contraction coefficients

   1.1 A     1  s         33980.000000     0.000091   -0.000019    0.000000    0.000000    0.000000
   2.1 A                   5089.000000     0.000704   -0.000151    0.000000    0.000000    0.000000
   3.1 A                   1157.000000     0.003693   -0.000785    0.000000    0.000000    0.000000
   4.1 A                    326.600000     0.015360   -0.003324    0.000000    0.000000    0.000000
   5.1 A                    106.100000     0.052929   -0.011512    0.000000    0.000000    0.000000
                             38.110000     0.147043   -0.034160    0.000000    0.000000    0.000000
                             14.750000     0.305631   -0.077173    0.000000    0.000000    0.000000
                              6.035000     0.399345   -0.141493    0.000000    0.000000    0.000000
                              2.530000     0.217051   -0.118019    0.000000    0.000000    0.000000
                              0.735500     0.015894    0.273806    1.000000    0.000000    0.000000
                              0.290500    -0.003084    0.586510    0.000000    1.000000    0.000000
                              0.111100     0.000978    0.285430    0.000000    0.000000    1.000000
   6.1 A     1  s             7.216000     1.000000
   7.1 A     1  s            19.570000     1.000000
   8.1 A     1  s            53.073000     1.000000
   9.1 A     1  s             0.041450     1.000000
  10.1 A     1  x            34.510000     0.005378
                              7.915000     0.036132
                              2.368000     0.142493
                              0.813200     0.342150
                              0.289000     0.463864
                              0.100700     0.250028
  11.1 A     1  y            34.510000     0.005378
                              7.915000     0.036132
                              2.368000     0.142493
                              0.813200     0.342150
                              0.289000     0.463864
                              0.100700     0.250028
  12.1 A     1  z            34.510000     0.005378
                              7.915000     0.036132
                              2.368000     0.142493
                              0.813200     0.342150
                              0.289000     0.463864
                              0.100700     0.250028
  13.1 A     1  x            34.510000     0.000000
                              7.915000     0.000000
                              2.368000     0.000000
                              0.813200     1.000000
                              0.289000     0.000000
                              0.100700     0.000000
  14.1 A     1  y            34.510000     0.000000
                              7.915000     0.000000
                              2.368000     0.000000
                              0.813200     1.000000
                              0.289000     0.000000
                              0.100700     0.000000
  15.1 A     1  z            34.510000     0.000000
                              7.915000     0.000000
                              2.368000     0.000000
                              0.813200     1.000000
                              0.289000     0.000000
                              0.100700     0.000000
  16.1 A     1  x            34.510000     0.000000
                              7.915000     0.000000
                              2.368000     0.000000
                              0.813200     0.000000
                              0.289000     1.000000
                              0.100700     0.000000
  17.1 A     1  y            34.510000     0.000000
                              7.915000     0.000000
                              2.368000     0.000000
                              0.813200     0.000000
                              0.289000     1.000000
                              0.100700     0.000000
  18.1 A     1  z            34.510000     0.000000
                              7.915000     0.000000
                              2.368000     0.000000
                              0.813200     0.000000
                              0.289000     1.000000
                              0.100700     0.000000
  19.1 A     1  x            34.510000     0.000000
                              7.915000     0.000000
                              2.368000     0.000000
                              0.813200     0.000000
                              0.289000     0.000000
                              0.100700     1.000000
  20.1 A     1  y            34.510000     0.000000
                              7.915000     0.000000
                              2.368000     0.000000
                              0.813200     0.000000
                              0.289000     0.000000
                              0.100700     1.000000
  21.1 A     1  z            34.510000     0.000000
                              7.915000     0.000000
                              2.368000     0.000000
                              0.813200     0.000000
                              0.289000     0.000000
                              0.100700     1.000000
  22.1 A     1  x             8.182000     1.000000
  23.1 A     1  y             8.182000     1.000000
  24.1 A     1  z             8.182000     1.000000
  25.1 A     1  x            24.186000     1.000000
  26.1 A     1  y            24.186000     1.000000
  27.1 A     1  z            24.186000     1.000000
  28.1 A     1  x            71.494000     1.000000
  29.1 A     1  y            71.494000     1.000000
  30.1 A     1  z            71.494000     1.000000
  31.1 A     1  x             0.032180     1.000000
  32.1 A     1  y             0.032180     1.000000
  33.1 A     1  z             0.032180     1.000000
  34.1 A     1  xx            1.848000     1.000000
  35.1 A     1  yy            1.848000     1.000000
  36.1 A     1  zz            1.848000     1.000000
  37.1 A     1  xy            1.848000     1.000000
  38.1 A     1  xz            1.848000     1.000000
  39.1 A     1  yz            1.848000     1.000000
  40.1 A     1  xx            0.649000     1.000000
  41.1 A     1  yy            0.649000     1.000000
  42.1 A     1  zz            0.649000     1.000000
  43.1 A     1  xy            0.649000     1.000000
  44.1 A     1  xz            0.649000     1.000000
  45.1 A     1  yz            0.649000     1.000000
  46.1 A     1  xx            0.228000     1.000000
  47.1 A     1  yy            0.228000     1.000000
  48.1 A     1  zz            0.228000     1.000000
  49.1 A     1  xy            0.228000     1.000000
  50.1 A     1  xz            0.228000     1.000000
  51.1 A     1  yz            0.228000     1.000000
  52.1 A     1  xx            8.656000     1.000000
  53.1 A     1  yy            8.656000     1.000000
  54.1 A     1  zz            8.656000     1.000000
  55.1 A     1  xy            8.656000     1.000000
  56.1 A     1  xz            8.656000     1.000000
  57.1 A     1  yz            8.656000     1.000000
  58.1 A     1  xx           33.213000     1.000000
  59.1 A     1  yy           33.213000     1.000000
  60.1 A     1  zz           33.213000     1.000000
  61.1 A     1  xy           33.213000     1.000000
  62.1 A     1  xz           33.213000     1.000000
  63.1 A     1  yz           33.213000     1.000000
  64.1 A     1  xx            0.076600     1.000000
  65.1 A     1  yy            0.076600     1.000000
  66.1 A     1  zz            0.076600     1.000000
  67.1 A     1  xy            0.076600     1.000000
  68.1 A     1  xz            0.076600     1.000000
  69.1 A     1  yz            0.076600     1.000000
  70.1 A     1  xxx           1.419000     1.000000
  71.1 A     1  yyy           1.419000     1.000000
  72.1 A     1  zzz           1.419000     1.000000
  73.1 A     1  xxy           1.419000     1.000000
  74.1 A     1  xxz           1.419000     1.000000
  75.1 A     1  xyy           1.419000     1.000000
  76.1 A     1  yyz           1.419000     1.000000
  77.1 A     1  xzz           1.419000     1.000000
  78.1 A     1  yzz           1.419000     1.000000
  79.1 A     1  xyz           1.419000     1.000000
  80.1 A     1  xxx           0.485000     1.000000
  81.1 A     1  yyy           0.485000     1.000000
  82.1 A     1  zzz           0.485000     1.000000
  83.1 A     1  xxy           0.485000     1.000000
  84.1 A     1  xxz           0.485000     1.000000
  85.1 A     1  xyy           0.485000     1.000000
  86.1 A     1  yyz           0.485000     1.000000
  87.1 A     1  xzz           0.485000     1.000000
  88.1 A     1  yzz           0.485000     1.000000
  89.1 A     1  xyz           0.485000     1.000000
  90.1 A     1  xxx          24.694000     1.000000
  91.1 A     1  yyy          24.694000     1.000000
  92.1 A     1  zzz          24.694000     1.000000
  93.1 A     1  xxy          24.694000     1.000000
  94.1 A     1  xxz          24.694000     1.000000
  95.1 A     1  xyy          24.694000     1.000000
  96.1 A     1  yyz          24.694000     1.000000
  97.1 A     1  xzz          24.694000     1.000000
  98.1 A     1  yzz          24.694000     1.000000
  99.1 A     1  xyz          24.694000     1.000000
 100.1 A     1  xxx           0.187000     1.000000
 101.1 A     1  yyy           0.187000     1.000000
 102.1 A     1  zzz           0.187000     1.000000
 103.1 A     1  xxy           0.187000     1.000000
 104.1 A     1  xxz           0.187000     1.000000
 105.1 A     1  xyy           0.187000     1.000000
 106.1 A     1  yyz           0.187000     1.000000
 107.1 A     1  xzz           0.187000     1.000000
 108.1 A     1  yzz           0.187000     1.000000
 109.1 A     1  xyz           0.187000     1.000000
 110.1 A     1  xxxx          1.011000     1.000000
 111.1 A     1  yyyy          1.011000     1.000000
 112.1 A     1  zzzz          1.011000     1.000000
 113.1 A     1  xxxy          1.011000     1.000000
 114.1 A     1  xxxz          1.011000     1.000000
 115.1 A     1  xyyy          1.011000     1.000000
 116.1 A     1  yyyz          1.011000     1.000000
 117.1 A     1  xzzz          1.011000     1.000000
 118.1 A     1  yzzz          1.011000     1.000000
 119.1 A     1  xxyy          1.011000     1.000000
 120.1 A     1  xxzz          1.011000     1.000000
 121.1 A     1  yyzz          1.011000     1.000000
 122.1 A     1  xxyz          1.011000     1.000000
 123.1 A     1  xyyz          1.011000     1.000000
 124.1 A     1  xyzz          1.011000     1.000000
 125.1 A     1  xxxx          0.424000     1.000000
 126.1 A     1  yyyy          0.424000     1.000000
 127.1 A     1  zzzz          0.424000     1.000000
 128.1 A     1  xxxy          0.424000     1.000000
 129.1 A     1  xxxz          0.424000     1.000000
 130.1 A     1  xyyy          0.424000     1.000000
 131.1 A     1  yyyz          0.424000     1.000000
 132.1 A     1  xzzz          0.424000     1.000000
 133.1 A     1  yzzz          0.424000     1.000000
 134.1 A     1  xxyy          0.424000     1.000000
 135.1 A     1  xxzz          0.424000     1.000000
 136.1 A     1  yyzz          0.424000     1.000000
 137.1 A     1  xxyz          0.424000     1.000000
 138.1 A     1  xyyz          0.424000     1.000000
 139.1 A     1  xyzz          0.424000     1.000000

 NUCLEAR CHARGE:                    6
 NUMBER OF PRIMITIVE AOS:         152
 NUMBER OF SYMMETRY AOS:          152
 NUMBER OF CONTRACTIONS:          139   ( 139A   )
 NUMBER OF CORE ORBITALS:           1   (   1A   )
 NUMBER OF VALENCE ORBITALS:        4   (   4A   )


 NUCLEAR REPULSION ENERGY    0.00000000

 EXTRA SYMMETRY OF AOS IN SYMMETRY 1:   1 1 1 1 1 1 1 1 1 2   3 4 2 3 4 2 3 4 2 3   4 2 3 4 2 3 4 2 3 4   2 3 4 1 1 1 5 6 7 1
                                        1 1 5 6 7 1 1 1 5 6   7 1 1 1 5 6 7 1 1 1   5 6 7 1 1 1 5 6 7 2   3 4 3 4 2 4 2 3 8 2
                                        3 4 3 4 2 4 2 3 8 2   3 4 3 4 2 4 2 3 8 2   3 4 3 4 2 4 2 3 8 1   1 1 5 6 5 7 6 7 1 1
                                        1 7 6 5 1 1 1 5 6 5   7 6 7 1 1 1 7 6 5

 Eigenvalues of metric

         1 0.136E-06 0.667E-05 0.246E-04 0.662E-04 0.106E-03 0.106E-03 0.106E-03 0.211E-03
 

 Contracted 2-electron integrals neglected if value below      1.0D-13
 AO integral compression algorithm  1   Integral accuracy      1.0D-13

     96.207 MB (compressed) written to integral file ( 25.2%)

     Node minimum: 96.207 MB, node maximum: 96.207 MB
 

 NUMBER OF SORTED TWO-ELECTRON INTEGRALS:   47341315.     BUFFER LENGTH:  32768
 NUMBER OF SEGMENTS:   3  SEGMENT LENGTH:   15998004      RECORD LENGTH: 524288

 Memory used in sort:      16.56 MW

 SORT1 READ   47781979. AND WROTE    6111403. INTEGRALS IN   19 RECORDS. CPU TIME:     1.17 SEC, REAL TIME:     1.56 SEC
 SORT2 READ    6111403. AND WROTE   47341315. INTEGRALS IN  367 RECORDS. CPU TIME:     2.13 SEC, REAL TIME:     2.57 SEC

 Node minimum:   47341315.  Node maximum:   47341315. integrals

 OPERATOR DM      FOR CENTER  0  COORDINATES:    0.000000    0.000000    0.000000


 **********************************************************************************************************************************
 DATASETS  * FILE   NREC   LENGTH (MB)   RECORD NAMES
              1      19       48.97       500      610      700      900      950      970     1000     1100     1400     1410   
                                          VAR    BASINP    GEOM    SYMINP    ZMAT    AOBASIS   BASIS      S        T        V 
                                         1200     1210     1080     1600      129      960     1650     1300     1700   
                                          H0       H01     AOSYM     SMH      P2S    ABASIS   MOLCAS    ERIS     OPER   
 
 PROGRAMS   *        TOTAL       INT
 CPU TIMES  *         9.12      9.01
 REAL TIME  *        10.35 SEC
 DISK USED  *       212.74 MB      
 **********************************************************************************************************************************

1PROGRAM * RHF-SCF (CLOSED SHELL)       Authors: W. Meyer, H.-J. Werner


 NUMBER OF ELECTRONS:       3+    3-
 CONVERGENCE THRESHOLDS:    1.00E-05 (Density)    1.00E-07 (Energy)
 MAX. NUMBER OF ITERATIONS:       60
 INTERPOLATION TYPE:            DIIS
 INTERPOLATION STEPS:              2 (START)      1 (STEP)
 LEVEL SHIFTS:                  0.00 (CLOSED)  0.00 (OPEN) 



 Orbital guess generated from atomic densities.  Occupancy:    3

 Molecular orbital dump at record        2100.2

 ITERATION    DDIFF          GRAD             ENERGY        2-EL.EN.            DIPOLE MOMENTS         DIIS
    1      0.000D+00      0.000D+00       -37.57917573     24.142647   0.000000   0.000000   0.000000    0
    2      0.000D+00      0.259D-02       -37.60414050     25.480778   0.000000   0.000000   0.000000    1
    3      0.706D-02      0.507D-03       -37.60462861     25.401934   0.000000   0.000000   0.000000    2
    4      0.871D-03      0.887D-04       -37.60467786     25.411233   0.000000   0.000000   0.000000    3
    5      0.206D-03      0.171D-04       -37.60468068     25.414568   0.000000   0.000000   0.000000    4
    6      0.695D-04      0.294D-05       -37.60468075     25.414911   0.000000   0.000000   0.000000    5
    7      0.135D-04      0.304D-06       -37.60468075     25.414920   0.000000   0.000000   0.000000    5
    8      0.978D-06      0.645D-07       -37.60468075     25.414920   0.000000   0.000000   0.000000    0
 
 Final occupancy:   3
 
 !RHF STATE 1.1 ENERGY                -37.604680749613
 Nuclear energy                         0.00000000
 One-electron energy                  -50.31214058
 Two-electron energy                   12.70745983
 Virial quotient                       -1.00001416
 !RHF STATE 1.1 DIPOLE MOMENT           0.00000000     0.00000000     0.00000000
 Dipole moment /Debye                   0.00000000     0.00000000     0.00000000

 ELECTRON ORBITALS
 =================


   Orb  Occ    Energy  Couls-En    Coefficients

                                   1 s       1 s       1 s       1 s       1 s       1 s       1 s       1 s       1 s       1 x    
                                   1 y       1 z       1 x       1 y       1 z       1 x       1 y       1 z       1 x       1 y    
                                   1 z       1 x       1 y       1 z       1 x       1 y       1 z       1 x       1 y       1 z    
                                   1 x       1 y       1 z       1 xx      1 yy      1 zz      1 xy      1 xz      1 yz      1 xx   
                                   1 yy      1 zz      1 xy      1 xz      1 yz      1 xx      1 yy      1 zz      1 xy      1 xz   
                                   1 yz      1 xx      1 yy      1 zz      1 xy      1 xz      1 yz      1 xx      1 yy      1 zz   
                                   1 xy      1 xz      1 yz      1 xx      1 yy      1 zz      1 xy      1 xz      1 yz      1 xxx  
                                   1 yyy     1 zzz     1 xxy     1 xxz     1 xyy     1 yyz     1 xzz     1 yzz     1 xyz     1 xxx  
                                   1 yyy     1 zzz     1 xxy     1 xxz     1 xyy     1 yyz     1 xzz     1 yzz     1 xyz     1 xxx  
                                   1 yyy     1 zzz     1 xxy     1 xxz     1 xyy     1 yyz     1 xzz     1 yzz     1 xyz     1 xxx  
                                   1 yyy     1 zzz     1 xxy     1 xxz     1 xyy     1 yyz     1 xzz     1 yzz     1 xyz     1 xxxx 
                                   1 yyyy    1 zzzz    1 xxxy    1 xxxz    1 xyyy    1 yyyz    1 xzzz    1 yzzz    1 xxyy    1 xxzz 
                                   1 yyzz    1 xxyz    1 xyyz    1 xyzz    1 xxxx    1 yyyy    1 zzzz    1 xxxy    1 xxxz    1 xyyy 
                                   1 yyyz    1 xzzz    1 yzzz    1 xxyy    1 xxzz    1 yyzz    1 xxyz    1 xyyz    1 xyzz 

   1.1   2   -11.3647  -29.2996  1.059708  0.280343 -0.120929  0.043914 -0.088199  0.015911 -0.001637  0.002123 -0.001151  0.000000
                                 0.000000  0.000000  0.000000  0.000000  0.000000  0.000000  0.000000  0.000000  0.000000  0.000000
                                 0.000000  0.000000  0.000000  0.000000  0.000000  0.000000  0.000000  0.000000  0.000000  0.000000
                                 0.000000  0.000000  0.000000 -0.009538 -0.009083 -0.009126 -0.000106 -0.000195 -0.000038 -0.052914
                                -0.056463 -0.056131  0.000826  0.001522  0.000295  0.002997  0.001884  0.001989  0.000259  0.000477
                                 0.000092 -0.000409  0.000183  0.000128 -0.000138 -0.000254 -0.000049  0.000807  0.000827  0.000825
                                -0.000004 -0.000008 -0.000002  0.000672  0.000766  0.000757 -0.000022 -0.000040 -0.000008  0.000000
                                 0.000000  0.000000  0.000000  0.000000  0.000000  0.000000  0.000000  0.000000  0.000000  0.000000
                                 0.000000  0.000000  0.000000  0.000000  0.000000  0.000000  0.000000  0.000000  0.000000  0.000000
                                 0.000000  0.000000  0.000000  0.000000  0.000000  0.000000  0.000000  0.000000  0.000000  0.000000
                                 0.000000  0.000000  0.000000  0.000000  0.000000  0.000000  0.000000  0.000000  0.000000  0.002328
                                 0.003840  0.003702 -0.000237 -0.000436 -0.000224 -0.000080 -0.000416 -0.000081  0.001816  0.001769
                                 0.002208 -0.000042 -0.000186 -0.000102 -0.017126 -0.016116 -0.016209 -0.000155 -0.000286 -0.000152
                                -0.000054 -0.000282 -0.000055 -0.009730 -0.009759 -0.009464 -0.000026 -0.000126 -0.000069

   2.1   2    -0.7255   -4.5820  0.000279  1.007339 -0.077314  0.176299 -0.092795 -0.000245  0.003704 -0.001406  0.003127  0.000000
                                 0.000000  0.000000  0.000000  0.000000  0.000000  0.000000  0.000000  0.000000  0.000000  0.000000
                                 0.000000  0.000000  0.000000  0.000000  0.000000  0.000000  0.000000  0.000000  0.000000  0.000000
                                 0.000000  0.000000  0.000000  0.010834  0.006900  0.007269  0.000915  0.001688  0.000327 -0.048879
                                -0.040418 -0.041211 -0.001968 -0.003629 -0.000704  0.036215  0.026364  0.027288  0.002292  0.004226
                                 0.000819  0.001342  0.000788  0.000840  0.000129  0.000238  0.000046 -0.000693 -0.000684 -0.000685
                                -0.000002 -0.000004 -0.000001  0.007396  0.001970  0.002479  0.001262  0.002327  0.000451  0.000000
                                 0.000000  0.000000  0.000000  0.000000  0.000000  0.000000  0.000000  0.000000  0.000000  0.000000
                                 0.000000  0.000000  0.000000  0.000000  0.000000  0.000000  0.000000  0.000000  0.000000  0.000000
                                 0.000000  0.000000  0.000000  0.000000  0.000000  0.000000  0.000000  0.000000  0.000000  0.000000
                                 0.000000  0.000000  0.000000  0.000000  0.000000  0.000000  0.000000  0.000000  0.000000  0.013389
                                 0.008635  0.009098  0.000694  0.001279  0.000754  0.000270  0.001380  0.000268  0.006497  0.006599
                                 0.005191  0.000091  0.000618  0.000328 -0.018107 -0.019299 -0.019085 -0.000002 -0.000003  0.000365
                                 0.000130  0.000609  0.000118 -0.010657 -0.010794 -0.011242 -0.000122  0.000277  0.000104

   3.1   2    -0.3584   -3.7230  0.000000  0.000000  0.000000  0.000000  0.000000  0.000000  0.000000  0.000000  0.000000  0.933989
                                 0.181092  0.333902 -0.006171 -0.001196 -0.002206 -0.091616 -0.017764 -0.032753 -0.016826 -0.003262
                                -0.006015 -0.002642 -0.000512 -0.000944 -0.001527 -0.000296 -0.000546  0.000763  0.000148  0.000273
                                 0.029249  0.005671  0.010457  0.000000  0.000000  0.000000  0.000000  0.000000  0.000000  0.000000
                                 0.000000  0.000000  0.000000  0.000000  0.000000  0.000000  0.000000  0.000000  0.000000  0.000000
                                 0.000000  0.000000  0.000000  0.000000  0.000000  0.000000  0.000000  0.000000  0.000000  0.000000
                                 0.000000  0.000000  0.000000  0.000000  0.000000  0.000000  0.000000  0.000000  0.000000  0.003075
                                 0.002127  0.003658 -0.001156 -0.002132  0.004631  0.001656  0.003638  0.000705 -0.000881  0.032103
                                 0.009684  0.017257 -0.000431 -0.000795  0.021712  0.007762  0.019469  0.003775 -0.001991  0.001445
                                 0.000289  0.000532  0.000117  0.000215  0.000666  0.000238  0.000660  0.000128 -0.000005  0.027549
                                 0.008222  0.014662 -0.000288 -0.000531  0.018445  0.006594  0.016576  0.003214 -0.001658  0.000000
                                 0.000000  0.000000  0.000000  0.000000  0.000000  0.000000  0.000000  0.000000  0.000000  0.000000
                                 0.000000  0.000000  0.000000  0.000000  0.000000  0.000000  0.000000  0.000000  0.000000  0.000000
                                 0.000000  0.000000  0.000000  0.000000  0.000000  0.000000  0.000000  0.000000  0.000000

   4.1   0     0.0186   -2.2123  0.000000  0.000000  0.000000  0.000000  0.000000  0.000000  0.000000  0.000000  0.000000  0.175100
                                 0.030092 -0.506110  0.031528  0.005418 -0.091129 -0.059134 -0.010162  0.170920 -0.099911 -0.017170
                                 0.288784  0.000274  0.000047 -0.000792 -0.000196 -0.000034  0.000568  0.000147  0.000025 -0.000425
                                 0.200633  0.034480 -0.579911  0.000000  0.000000  0.000000  0.000000  0.000000  0.000000  0.000000
                                 0.000000  0.000000  0.000000  0.000000  0.000000  0.000000  0.000000  0.000000  0.000000  0.000000
                                 0.000000  0.000000  0.000000  0.000000  0.000000  0.000000  0.000000  0.000000  0.000000  0.000000
                                 0.000000  0.000000  0.000000  0.000000  0.000000  0.000000  0.000000  0.000000  0.000000 -0.000687
                                 0.000177 -0.002507 -0.000362  0.000318  0.000407 -0.001348  0.002035  0.000386  0.000395  0.044179
                                 0.008138 -0.136007  0.002824 -0.058161  0.021078 -0.061244  0.024091  0.004207  0.000732  0.000191
                                 0.000034 -0.000577  0.000013 -0.000250  0.000089 -0.000259  0.000098  0.000017  0.000002  0.063674
                                 0.012605 -0.209376  0.003151 -0.085520  0.032501 -0.094915  0.041683  0.007368  0.002230  0.000000
                                 0.000000  0.000000  0.000000  0.000000  0.000000  0.000000  0.000000  0.000000  0.000000  0.000000
                                 0.000000  0.000000  0.000000  0.000000  0.000000  0.000000  0.000000  0.000000  0.000000  0.000000
                                 0.000000  0.000000  0.000000  0.000000  0.000000  0.000000  0.000000  0.000000  0.000000

   5.1   0     0.0186   -2.2123  0.000000  0.000000  0.000000  0.000000  0.000000  0.000000  0.000000  0.000000  0.000000 -0.100866
                                 0.526807 -0.003574 -0.018162  0.094856 -0.000644  0.034064 -0.177910  0.001207  0.057553 -0.300593
                                 0.002039 -0.000158  0.000824 -0.000006  0.000113 -0.000591  0.000004 -0.000085  0.000443 -0.000003
                                -0.115574  0.603627 -0.004096  0.000000  0.000000  0.000000  0.000000  0.000000  0.000000  0.000000
                                 0.000000  0.000000  0.000000  0.000000  0.000000  0.000000  0.000000  0.000000  0.000000  0.000000
                                 0.000000  0.000000  0.000000  0.000000  0.000000  0.000000  0.000000  0.000000  0.000000  0.000000
                                 0.000000  0.000000  0.000000  0.000000  0.000000  0.000000  0.000000  0.000000  0.000000  0.000396
                                 0.003093 -0.000018 -0.000746  0.000334 -0.001195 -0.000342 -0.000212  0.001169 -0.000949 -0.025449
                                 0.142464 -0.000961  0.059771  0.000204 -0.013919 -0.001047 -0.012101  0.063316 -0.001757 -0.000110
                                 0.000603 -0.000004  0.000258  0.000000 -0.000057 -0.000004 -0.000051  0.000269 -0.000005 -0.036679
                                 0.220666 -0.001479  0.086676  0.001270 -0.024138 -0.002544 -0.018596  0.097478 -0.005354  0.000000
                                 0.000000  0.000000  0.000000  0.000000  0.000000  0.000000  0.000000  0.000000  0.000000  0.000000
                                 0.000000  0.000000  0.000000  0.000000  0.000000  0.000000  0.000000  0.000000  0.000000  0.000000
                                 0.000000  0.000000  0.000000  0.000000  0.000000  0.000000  0.000000  0.000000  0.000000

   6.1   0     0.0483   -0.8665 -1.696533 -8.022897  4.581922 -5.947171  3.829132 -0.384992 -0.066535 -0.011813  7.789913  0.000000
                                 0.000000  0.000000  0.000000  0.000000  0.000000  0.000000  0.000000  0.000000  0.000000  0.000000
                                 0.000000  0.000000  0.000000  0.000000  0.000000  0.000000  0.000000  0.000000  0.000000  0.000000
                                 0.000000  0.000000  0.000000  0.226638  0.232271  0.231743 -0.001310 -0.002416 -0.000468  2.047269
                                 2.022421  2.024750  0.005781  0.010658  0.002067 -1.562286 -1.600113 -1.596567  0.008800  0.016225
                                 0.003146 -0.014747 -0.014864 -0.014853  0.000027  0.000050  0.000010 -0.001690 -0.001667 -0.001669
                                -0.000005 -0.000010 -0.000002 -2.350382 -2.297462 -2.302423 -0.012311 -0.022699 -0.004401  0.000000
                                 0.000000  0.000000  0.000000  0.000000  0.000000  0.000000  0.000000  0.000000  0.000000  0.000000
                                 0.000000  0.000000  0.000000  0.000000  0.000000  0.000000  0.000000  0.000000  0.000000  0.000000
                                 0.000000  0.000000  0.000000  0.000000  0.000000  0.000000  0.000000  0.000000  0.000000  0.000000
                                 0.000000  0.000000  0.000000  0.000000  0.000000  0.000000  0.000000  0.000000  0.000000 -0.097341
                                -0.081660 -0.083116 -0.002412 -0.004448 -0.002364 -0.000845 -0.004367 -0.000847 -0.052367 -0.052820
                                -0.048242 -0.000402 -0.001953 -0.001065  0.949417  0.969586  0.967653 -0.002995 -0.005523 -0.003148
                                -0.001125 -0.005778 -0.001120  0.561703  0.561221  0.567167 -0.000428 -0.002586 -0.001383

   7.1   0     0.0793   -0.7605  0.000000  0.000000  0.000000  0.000000  0.000000  0.000000  0.000000  0.000000  0.000000 -0.316915
                                -0.061447 -0.113297  0.457678  0.088740  0.163620 -0.688835 -0.133559 -0.246259 -2.313154 -0.448501
                                -0.826954  0.009376  0.001818  0.003352  0.001260  0.000244  0.000451 -0.000332 -0.000064 -0.000119
                                 1.458367  0.282765  0.521367  0.000000  0.000000  0.000000  0.000000  0.000000  0.000000  0.000000
                                 0.000000  0.000000  0.000000  0.000000  0.000000  0.000000  0.000000  0.000000  0.000000  0.000000
                                 0.000000  0.000000  0.000000  0.000000  0.000000  0.000000  0.000000  0.000000  0.000000  0.000000
                                 0.000000  0.000000  0.000000  0.000000  0.000000  0.000000  0.000000  0.000000  0.000000 -0.003158
                                -0.000806 -0.001453 -0.000094 -0.000173 -0.001824 -0.000652 -0.001699 -0.000329  0.000111  0.577701
                                 0.110667  0.204282  0.051342  0.094666  0.255497  0.091340  0.256369  0.049708  0.000774 -0.001527
                                -0.000298 -0.000549 -0.000131 -0.000241 -0.000687 -0.000246 -0.000686 -0.000133  0.000001  1.020715
                                 0.199911  0.368253  0.086646  0.159759  0.460736  0.164714  0.459437  0.089081 -0.001153  0.000000
                                 0.000000  0.000000  0.000000  0.000000  0.000000  0.000000  0.000000  0.000000  0.000000  0.000000
                                 0.000000  0.000000  0.000000  0.000000  0.000000  0.000000  0.000000  0.000000  0.000000  0.000000
                                 0.000000  0.000000  0.000000  0.000000  0.000000  0.000000  0.000000  0.000000  0.000000

   8.1   0     0.0950   -1.3379  0.000000  0.000000  0.000000  0.000000  0.000000  0.000000  0.000000  0.000000  0.000000  0.146002
                                -0.615374 -0.074645 -0.126844  0.534628  0.064851  0.189908 -0.800432 -0.097093  0.680292 -2.867328
                                -0.347808 -0.002656  0.011195  0.001358 -0.000422  0.001778  0.000216  0.000145 -0.000609 -0.000074
                                -0.346630  1.460993  0.177219  0.000000  0.000000  0.000000  0.000000  0.000000  0.000000  0.000000
                                 0.000000  0.000000  0.000000  0.000000  0.000000  0.000000  0.000000  0.000000  0.000000  0.000000
                                 0.000000  0.000000  0.000000  0.000000  0.000000  0.000000  0.000000  0.000000  0.000000  0.000000
                                 0.000000  0.000000  0.000000  0.000000  0.000000  0.000000  0.000000  0.000000  0.000000  0.000493
                                -0.005644 -0.000644 -0.001082 -0.000394  0.001241 -0.000076  0.000707 -0.002347  0.000697 -0.160574
                                 0.664393  0.080732  0.302142  0.035737 -0.068260  0.036840 -0.070118  0.297742  0.002426  0.000508
                                -0.002164 -0.000262 -0.000958 -0.000118  0.000234 -0.000116  0.000230 -0.000967  0.000005 -0.288422
                                 1.208617  0.146686  0.543357  0.065391 -0.126971  0.066018 -0.128026  0.540860  0.001377  0.000000
                                 0.000000  0.000000  0.000000  0.000000  0.000000  0.000000  0.000000  0.000000  0.000000  0.000000
                                 0.000000  0.000000  0.000000  0.000000  0.000000  0.000000  0.000000  0.000000  0.000000  0.000000
                                 0.000000  0.000000  0.000000  0.000000  0.000000  0.000000  0.000000  0.000000  0.000000

   9.1   0     0.0950   -1.3379  0.000000  0.000000  0.000000  0.000000  0.000000  0.000000  0.000000  0.000000  0.000000  0.190381
                                 0.117496 -0.596258 -0.165400 -0.102078  0.518020  0.247633  0.152829 -0.775567  0.887079  0.547469
                                -2.778256 -0.003463 -0.002138  0.010847 -0.000550 -0.000339  0.001723  0.000189  0.000116 -0.000590
                                -0.451994 -0.278953  1.415609  0.000000  0.000000  0.000000  0.000000  0.000000  0.000000  0.000000
                                 0.000000  0.000000  0.000000  0.000000  0.000000  0.000000  0.000000  0.000000  0.000000  0.000000
                                 0.000000  0.000000  0.000000  0.000000  0.000000  0.000000  0.000000  0.000000  0.000000  0.000000
                                 0.000000  0.000000  0.000000  0.000000  0.000000  0.000000  0.000000  0.000000  0.000000  0.000643
                                 0.001078 -0.005145 -0.000021 -0.001267  0.000658 -0.002489  0.001882  0.000676  0.000188 -0.209384
                                -0.126855  0.644880 -0.058482  0.291995 -0.092350  0.287743 -0.088091 -0.056056  0.000653  0.000662
                                 0.000413 -0.002095  0.000181 -0.000930  0.000299 -0.000938  0.000307  0.000186  0.000001 -0.376093
                                -0.230766  1.171711 -0.104195  0.526046 -0.167462  0.523633 -0.165045 -0.102818  0.000371  0.000000
                                 0.000000  0.000000  0.000000  0.000000  0.000000  0.000000  0.000000  0.000000  0.000000  0.000000
                                 0.000000  0.000000  0.000000  0.000000  0.000000  0.000000  0.000000  0.000000  0.000000  0.000000
                                 0.000000  0.000000  0.000000  0.000000  0.000000  0.000000  0.000000  0.000000  0.000000

  10.1   0     0.2061   -0.8009  3.856866 17.614947-10.424089 13.986985-12.773324  0.877236  0.149017  0.027828-11.189261  0.000000
                                 0.000000  0.000000  0.000000  0.000000  0.000000  0.000000  0.000000  0.000000  0.000000  0.000000
                                 0.000000  0.000000  0.000000  0.000000  0.000000  0.000000  0.000000  0.000000  0.000000  0.000000
                                 0.000000  0.000000  0.000000 -0.559750 -0.516078 -0.520172 -0.010160 -0.018732 -0.003632 -4.507091
                                -4.674874 -4.659146  0.039032  0.071967  0.013954  4.048828  3.731601  3.761337  0.073797  0.136069
                                 0.026383  0.033765  0.032553  0.032666  0.000282  0.000520  0.000101  0.004139  0.004327  0.004309
                                -0.000044 -0.000081 -0.000016  4.276357  4.712613  4.671720 -0.101487 -0.187124 -0.036282  0.000000
                                 0.000000  0.000000  0.000000  0.000000  0.000000  0.000000  0.000000  0.000000  0.000000  0.000000
                                 0.000000  0.000000  0.000000  0.000000  0.000000  0.000000  0.000000  0.000000  0.000000  0.000000
                                 0.000000  0.000000  0.000000  0.000000  0.000000  0.000000  0.000000  0.000000  0.000000  0.000000
                                 0.000000  0.000000  0.000000  0.000000  0.000000  0.000000  0.000000  0.000000  0.000000  0.112668
                                 0.231887  0.220794 -0.018303 -0.033748 -0.018010 -0.006438 -0.033257 -0.006448  0.101112  0.097704
                                 0.132528 -0.003024 -0.014869 -0.008101 -2.319155 -2.146552 -2.163176 -0.025489 -0.046998 -0.027083
                                -0.009682 -0.049661 -0.009629 -1.308709 -1.312705 -1.261741 -0.003546 -0.022230 -0.011856

  11.1   0     0.2191   -0.8011  0.000000  0.000000  0.000000  0.000000  0.000000  0.000000  0.000000  0.000000  0.000000  0.000000
                                 0.000000  0.000000  0.000000  0.000000  0.000000  0.000000  0.000000  0.000000  0.000000  0.000000
                                 0.000000  0.000000  0.000000  0.000000  0.000000  0.000000  0.000000  0.000000  0.000000  0.000000
                                 0.000000  0.000000  0.000000  0.007821 -0.114194  0.106372  0.029975 -0.041520 -0.012332 -0.029086
                                 0.424658 -0.395572 -0.111471  0.154403  0.045861 -0.059151  0.863609 -0.804458 -0.226693  0.314002
                                 0.093266 -0.000241  0.003515 -0.003274 -0.000923  0.001278  0.000380  0.000034 -0.000502  0.000468
                                 0.000132 -0.000183 -0.000054  0.071580 -1.045067  0.973487  0.274325 -0.379978 -0.112862  0.000000
                                 0.000000  0.000000  0.000000  0.000000  0.000000  0.000000  0.000000  0.000000  0.000000  0.000000
                                 0.000000  0.000000  0.000000  0.000000  0.000000  0.000000  0.000000  0.000000  0.000000  0.000000
                                 0.000000  0.000000  0.000000  0.000000  0.000000  0.000000  0.000000  0.000000  0.000000  0.000000
                                 0.000000  0.000000  0.000000  0.000000  0.000000  0.000000  0.000000  0.000000  0.000000  0.021466
                                -0.311493  0.290325  0.053877 -0.074563  0.053236 -0.022127 -0.073685 -0.021938 -0.085408  0.091460
                                -0.006314 -0.009879 -0.033402  0.023999  0.031222 -0.467253  0.434253  0.078214 -0.108721  0.082033
                                -0.032413 -0.113950 -0.033538 -0.124698  0.135227 -0.008966 -0.014594 -0.048286  0.035545

  12.1   0     0.2191   -0.8011  0.000000  0.000000  0.000000  0.000000  0.000000  0.000000  0.000000  0.000000  0.000000  0.000000
                                 0.000000  0.000000  0.000000  0.000000  0.000000  0.000000  0.000000  0.000000  0.000000  0.000000
                                 0.000000  0.000000  0.000000  0.000000  0.000000  0.000000  0.000000  0.000000  0.000000  0.000000
                                 0.000000  0.000000  0.000000  0.015055 -0.018490  0.003435 -0.041452 -0.026145  0.127528 -0.055985
                                 0.068760 -0.012774  0.154149  0.097226 -0.474246 -0.113855  0.139834 -0.025979  0.313486  0.197724
                                -0.964454 -0.000463  0.000569 -0.000106  0.001276  0.000805 -0.003925  0.000066 -0.000081  0.000015
                                -0.000182 -0.000115  0.000561  0.137778 -0.169215  0.031437 -0.379354 -0.239268  1.167101  0.000000
                                 0.000000  0.000000  0.000000  0.000000  0.000000  0.000000  0.000000  0.000000  0.000000  0.000000
                                 0.000000  0.000000  0.000000  0.000000  0.000000  0.000000  0.000000  0.000000  0.000000  0.000000
                                 0.000000  0.000000  0.000000  0.000000  0.000000  0.000000  0.000000  0.000000  0.000000  0.000000
                                 0.000000  0.000000  0.000000  0.000000  0.000000  0.000000  0.000000  0.000000  0.000000  0.041319
                                -0.050436  0.009376 -0.074439 -0.046904 -0.074069  0.227715 -0.046698  0.227866 -0.002976  0.014625
                                -0.011875  0.102275 -0.020695 -0.032672  0.060096 -0.075657  0.014024 -0.108553 -0.068745 -0.110755
                                 0.341709 -0.069969  0.340807 -0.002727  0.022993 -0.018915  0.150213 -0.032417 -0.052229

  13.1   0     0.2275   -0.7914  0.000000  0.000000  0.000000  0.000000  0.000000  0.000000  0.000000  0.000000  0.000000  0.000000
                                 0.000000  0.000000  0.000000  0.000000  0.000000  0.000000  0.000000  0.000000  0.000000  0.000000
                                 0.000000  0.000000  0.000000  0.000000  0.000000  0.000000  0.000000  0.000000  0.000000  0.000000
                                 0.000000  0.000000  0.000000 -0.085148  0.014966  0.070183  0.035031  0.095768  0.037908  0.314399
                                -0.055259 -0.259141 -0.129348 -0.353610 -0.139968  0.641304 -0.112715 -0.528589 -0.263842 -0.721285
                                -0.285504  0.002602 -0.000457 -0.002145 -0.001070 -0.002926 -0.001158 -0.000374  0.000066  0.000309
                                 0.000154  0.000421  0.000167 -0.761321  0.133809  0.627512  0.313218  0.856269  0.338935  0.000000
                                 0.000000  0.000000  0.000000  0.000000  0.000000  0.000000  0.000000  0.000000  0.000000  0.000000
                                 0.000000  0.000000  0.000000  0.000000  0.000000  0.000000  0.000000  0.000000  0.000000  0.000000
                                 0.000000  0.000000  0.000000  0.000000  0.000000  0.000000  0.000000  0.000000  0.000000  0.000000
                                 0.000000  0.000000  0.000000  0.000000  0.000000  0.000000  0.000000  0.000000  0.000000 -0.232435
                                 0.040621  0.190599  0.062402  0.170772  0.062283  0.067371  0.170568  0.067454 -0.055593 -0.011053
                                 0.067714  0.030556  0.076224  0.028117 -0.342437  0.061648  0.288462  0.093496  0.254471  0.094247
                                 0.102146  0.255760  0.101626 -0.085768 -0.023351  0.102379  0.042988  0.114732  0.040488

  14.1   0     0.2275   -0.7914  0.000000  0.000000  0.000000  0.000000  0.000000  0.000000  0.000000  0.000000  0.000000  0.000000
                                 0.000000  0.000000  0.000000  0.000000  0.000000  0.000000  0.000000  0.000000  0.000000  0.000000
                                 0.000000  0.000000  0.000000  0.000000  0.000000  0.000000  0.000000  0.000000  0.000000  0.000000
                                 0.000000  0.000000  0.000000 -0.009699  0.040727 -0.031028  0.120186 -0.052111  0.033639  0.035811
                                -0.150378  0.114567 -0.443772  0.192413 -0.124208  0.073046 -0.306738  0.233692 -0.905195  0.392480
                                -0.253356  0.000296 -0.001245  0.000948 -0.003673  0.001592 -0.001028 -0.000043  0.000179 -0.000136
                                 0.000528 -0.000229  0.000148 -0.086716  0.364142 -0.277426  1.074597 -0.465931  0.300770  0.000000
                                 0.000000  0.000000  0.000000  0.000000  0.000000  0.000000  0.000000  0.000000  0.000000  0.000000
                                 0.000000  0.000000  0.000000  0.000000  0.000000  0.000000  0.000000  0.000000  0.000000  0.000000
                                 0.000000  0.000000  0.000000  0.000000  0.000000  0.000000  0.000000  0.000000  0.000000  0.000000
                                 0.000000  0.000000  0.000000  0.000000  0.000000  0.000000  0.000000  0.000000  0.000000 -0.026475
                                 0.110544 -0.084265  0.214756 -0.093167  0.213658  0.059808 -0.092782  0.059780  0.025221 -0.032813
                                 0.007762  0.027190 -0.041192  0.095605 -0.039004  0.167766 -0.127530  0.316568 -0.136931  0.323503
                                 0.090498 -0.139366  0.090678  0.033857 -0.046286  0.011347  0.037677 -0.064229  0.144330

  15.1   0     0.2330   -0.7878  1.181222  5.387253 -3.189288  4.314432 -4.103079  0.268674  0.045611  0.008536 -3.187175  0.000000
                                 0.000000  0.000000  0.000000  0.000000  0.000000  0.000000  0.000000  0.000000  0.000000  0.000000
                                 0.000000  0.000000  0.000000  0.000000  0.000000  0.000000  0.000000  0.000000  0.000000  0.000000
                                 0.000000  0.000000  0.000000 -0.054185 -0.226224 -0.210098  0.040022  0.073793  0.014308 -1.812281
                                -1.180000 -1.239268 -0.147089 -0.271205 -0.052584  0.371835  1.671414  1.549595 -0.302324 -0.557430
                                -0.108081  0.006731  0.012024  0.011528 -0.001231 -0.002270 -0.000440  0.001792  0.001034  0.001105
                                 0.000176  0.000325  0.000063  2.302139  0.791387  0.933000  0.351449  0.648009  0.125643  0.000000
                                 0.000000  0.000000  0.000000  0.000000  0.000000  0.000000  0.000000  0.000000  0.000000  0.000000
                                 0.000000  0.000000  0.000000  0.000000  0.000000  0.000000  0.000000  0.000000  0.000000  0.000000
                                 0.000000  0.000000  0.000000  0.000000  0.000000  0.000000  0.000000  0.000000  0.000000  0.000000
                                 0.000000  0.000000  0.000000  0.000000  0.000000  0.000000  0.000000  0.000000  0.000000  0.354070
                                -0.113897 -0.070244  0.071649  0.132109  0.070887  0.025342  0.130835  0.025368  0.069702  0.082898
                                -0.053902  0.011708  0.058501  0.031824 -0.235106 -0.936691 -0.869546  0.104371  0.192441  0.109323
                                 0.039083  0.200715  0.038917 -0.339080 -0.322127 -0.528869  0.015041  0.089826  0.048095

  16.1   0     0.3084   -0.8379  0.000000  0.000000  0.000000  0.000000  0.000000  0.000000  0.000000  0.000000  0.000000 -0.008279
                                -0.001605 -0.002960 -1.386004 -0.268734 -0.495497  1.961799  0.380376  0.701344  7.164308  1.389098
                                 2.561244 -0.025849 -0.005012 -0.009241 -0.002250 -0.000436 -0.000804  0.000195  0.000038  0.000070
                                -1.209476 -0.234507 -0.432388  0.000000  0.000000  0.000000  0.000000  0.000000  0.000000  0.000000
                                 0.000000  0.000000  0.000000  0.000000  0.000000  0.000000  0.000000  0.000000  0.000000  0.000000
                                 0.000000  0.000000  0.000000  0.000000  0.000000  0.000000  0.000000  0.000000  0.000000  0.000000
                                 0.000000  0.000000  0.000000  0.000000  0.000000  0.000000  0.000000  0.000000  0.000000  0.012219
                                 0.001954  0.003675  0.001445  0.002664  0.004583  0.001638  0.004852  0.000941  0.000239 -1.750091
                                -0.342984 -0.631769 -0.148353 -0.273537 -0.790440 -0.282583 -0.788068 -0.152800  0.002104  0.003082
                                 0.000593  0.001093  0.000272  0.000501  0.001368  0.000489  0.001371  0.000266  0.000003 -3.352797
                                -0.640703 -1.182960 -0.299437 -0.552108 -1.479480 -0.528915 -1.485562 -0.288038 -0.005395  0.000000
                                 0.000000  0.000000  0.000000  0.000000  0.000000  0.000000  0.000000  0.000000  0.000000  0.000000
                                 0.000000  0.000000  0.000000  0.000000  0.000000  0.000000  0.000000  0.000000  0.000000  0.000000
                                 0.000000  0.000000  0.000000  0.000000  0.000000  0.000000  0.000000  0.000000  0.000000

  17.1   0     0.3230   -1.1149  0.000000  0.000000  0.000000  0.000000  0.000000  0.000000  0.000000  0.000000  0.000000  0.013721
                                -0.103587  0.017799  0.197710 -1.492565  0.256464 -0.272538  2.057464 -0.353529 -1.003003  7.571951
                                -1.301070  0.003710 -0.028007  0.004812  0.000314 -0.002374  0.000408 -0.000013  0.000101 -0.000017
                                 0.161199 -1.216935  0.209103  0.000000  0.000000  0.000000  0.000000  0.000000  0.000000  0.000000
                                 0.000000  0.000000  0.000000  0.000000  0.000000  0.000000  0.000000  0.000000  0.000000  0.000000
                                 0.000000  0.000000  0.000000  0.000000  0.000000  0.000000  0.000000  0.000000  0.000000  0.000000
                                 0.000000  0.000000  0.000000  0.000000  0.000000  0.000000  0.000000  0.000000  0.000000 -0.002110
                                 0.012710 -0.002236  0.007046 -0.001365 -0.000173 -0.000769 -0.000954  0.005783  0.000544  0.246965
                                -1.888476  0.324105 -0.834363  0.142209  0.116209  0.146668  0.110364 -0.843810  0.004068 -0.000420
                                 0.003140 -0.000540  0.001418 -0.000245 -0.000180 -0.000239 -0.000188  0.001405  0.000005  0.481210
                                -3.590195  0.617581 -1.623617  0.281031  0.205005  0.273140  0.215349 -1.606898 -0.007200  0.000000
                                 0.000000  0.000000  0.000000  0.000000  0.000000  0.000000  0.000000  0.000000  0.000000  0.000000
                                 0.000000  0.000000  0.000000  0.000000  0.000000  0.000000  0.000000  0.000000  0.000000  0.000000
                                 0.000000  0.000000  0.000000  0.000000  0.000000  0.000000  0.000000  0.000000  0.000000

  18.1   0     0.3230   -1.1149  0.000000  0.000000  0.000000  0.000000  0.000000  0.000000  0.000000  0.000000  0.000000  0.037501
                                -0.011944 -0.098419  0.540342 -0.172095 -1.418107 -0.744848  0.237228  1.954825 -2.741215  0.873055
                                 7.194216  0.010139 -0.003229 -0.026610  0.000859 -0.000274 -0.002255 -0.000036  0.000012  0.000096
                                 0.440558 -0.140314 -1.156227  0.000000  0.000000  0.000000  0.000000  0.000000  0.000000  0.000000
                                 0.000000  0.000000  0.000000  0.000000  0.000000  0.000000  0.000000  0.000000  0.000000  0.000000
                                 0.000000  0.000000  0.000000  0.000000  0.000000  0.000000  0.000000  0.000000  0.000000  0.000000
                                 0.000000  0.000000  0.000000  0.000000  0.000000  0.000000  0.000000  0.000000  0.000000 -0.005766
                                 0.001465  0.012362  0.000611  0.006380 -0.001991  0.005424 -0.001091  0.000868  0.000346  0.674957
                                -0.217744 -1.792124 -0.097707 -0.795089  0.306247 -0.802242  0.312979 -0.095788  0.002587 -0.001148
                                 0.000362  0.002986  0.000161  0.001344 -0.000508  0.001334 -0.000499  0.000164  0.000003  1.315151
                                -0.413954 -3.414888 -0.184543 -1.538463  0.580372 -1.525804  0.568457 -0.187939 -0.004579  0.000000
                                 0.000000  0.000000  0.000000  0.000000  0.000000  0.000000  0.000000  0.000000  0.000000  0.000000
                                 0.000000  0.000000  0.000000  0.000000  0.000000  0.000000  0.000000  0.000000  0.000000  0.000000
                                 0.000000  0.000000  0.000000  0.000000  0.000000  0.000000  0.000000  0.000000  0.000000

  19.1   0     0.5257   -0.4778 -8.064066-37.867996 21.862565-31.731141 37.332853 -1.829272 -0.314308 -0.056632 10.980858  0.000000
                                 0.000000  0.000000  0.000000  0.000000  0.000000  0.000000  0.000000  0.000000  0.000000  0.000000
                                 0.000000  0.000000  0.000000  0.000000  0.000000  0.000000  0.000000  0.000000  0.000000  0.000000
                                 0.000000  0.000000  0.000000  1.130365  1.093742  1.097175  0.008520  0.015709  0.003046  9.621915
                                 9.746730  9.735030 -0.029036 -0.053537 -0.010380 -9.235489 -8.841239 -8.878195 -0.091715 -0.169106
                                -0.032788 -0.070143 -0.068696 -0.068831 -0.000337 -0.000621 -0.000120 -0.008021 -0.008192 -0.008176
                                 0.000040  0.000073  0.000014 -5.693684 -5.806684 -5.796092  0.026288  0.048470  0.009398  0.000000
                                 0.000000  0.000000  0.000000  0.000000  0.000000  0.000000  0.000000  0.000000  0.000000  0.000000
                                 0.000000  0.000000  0.000000  0.000000  0.000000  0.000000  0.000000  0.000000  0.000000  0.000000
                                 0.000000  0.000000  0.000000  0.000000  0.000000  0.000000  0.000000  0.000000  0.000000  0.000000
                                 0.000000  0.000000  0.000000  0.000000  0.000000  0.000000  0.000000  0.000000  0.000000 -0.322174
                                -0.424281 -0.414655  0.015453  0.028492  0.015648  0.005594  0.028818  0.005588 -0.218383 -0.215671
                                -0.245618  0.002406  0.012890  0.006967  4.862967  4.679556  4.696374  0.028604  0.052740  0.027261
                                 0.009746  0.050497  0.009791  2.792684  2.798341  2.745006  0.005019  0.022565  0.012407

  20.1   0     0.6583   -0.5624  0.000000  0.000000  0.000000  0.000000  0.000000  0.000000  0.000000  0.000000  0.000000  0.000000
                                 0.000000  0.000000  0.000000  0.000000  0.000000  0.000000  0.000000  0.000000  0.000000  0.000000
                                 0.000000  0.000000  0.000000  0.000000  0.000000  0.000000  0.000000  0.000000  0.000000  0.000000
                                 0.000000  0.000000  0.000000 -0.034359  0.014436  0.019923  0.108278  0.052253 -0.311915  0.133044
                                -0.055898 -0.077146 -0.419267 -0.202332  1.207779  0.367658 -0.154470 -0.213188 -1.158617 -0.559130
                                 3.337620  0.001243 -0.000522 -0.000721 -0.003917 -0.001890  0.011284 -0.000156  0.000065  0.000090
                                 0.000490  0.000237 -0.001412 -0.096183  0.040411  0.055772  0.303106  0.146274 -0.873156  0.000000
                                 0.000000  0.000000  0.000000  0.000000  0.000000  0.000000  0.000000  0.000000  0.000000  0.000000
                                 0.000000  0.000000  0.000000  0.000000  0.000000  0.000000  0.000000  0.000000  0.000000  0.000000
                                 0.000000  0.000000  0.000000  0.000000  0.000000  0.000000  0.000000  0.000000  0.000000  0.000000
                                 0.000000  0.000000  0.000000  0.000000  0.000000  0.000000  0.000000  0.000000  0.000000 -0.098075
                                 0.041372  0.057077  0.202393  0.097754  0.203124 -0.585220  0.097935 -0.585003 -0.017021 -0.012396
                                 0.029087 -0.260995  0.044194  0.091558 -0.175161  0.071497  0.098946  0.360603  0.172987  0.351390
                                -1.011212  0.170699 -1.013948 -0.025063 -0.017364  0.046570 -0.461345  0.071351  0.148101

  21.1   0     0.6583   -0.5624  0.000000  0.000000  0.000000  0.000000  0.000000  0.000000  0.000000  0.000000  0.000000  0.000000
                                 0.000000  0.000000  0.000000  0.000000  0.000000  0.000000  0.000000  0.000000  0.000000  0.000000
                                 0.000000  0.000000  0.000000  0.000000  0.000000  0.000000  0.000000  0.000000  0.000000  0.000000
                                 0.000000  0.000000  0.000000 -0.022926  0.281277 -0.258352 -0.061542  0.107426 -0.004006  0.088772
                                -1.089147  1.000375  0.238299 -0.415969  0.015513  0.245315 -3.009787  2.764472  0.658525 -1.149503
                                 0.042870  0.000829 -0.010176  0.009347  0.002226 -0.003886  0.000145 -0.000104  0.001273 -0.001170
                                -0.000279  0.000486 -0.000018 -0.064177  0.787392 -0.723215 -0.172277  0.300722 -0.011215  0.000000
                                 0.000000  0.000000  0.000000  0.000000  0.000000  0.000000  0.000000  0.000000  0.000000  0.000000
                                 0.000000  0.000000  0.000000  0.000000  0.000000  0.000000  0.000000  0.000000  0.000000  0.000000
                                 0.000000  0.000000  0.000000  0.000000  0.000000  0.000000  0.000000  0.000000  0.000000  0.000000
                                 0.000000  0.000000  0.000000  0.000000  0.000000  0.000000  0.000000  0.000000  0.000000 -0.065439
                                 0.806121 -0.740138 -0.114960  0.200815 -0.115958 -0.007693  0.202312 -0.007352  0.215968 -0.235595
                                 0.019150 -0.003333  0.089765 -0.051457 -0.116874  1.393088 -1.283059 -0.205895  0.357586 -0.193318
                                -0.010766  0.338732 -0.015068  0.384743 -0.413052  0.034321 -0.006164  0.160452 -0.091505

  22.1   0     0.6715   -0.5544  0.000000  0.000000  0.000000  0.000000  0.000000  0.000000  0.000000  0.000000  0.000000  0.000000
                                 0.000000  0.000000  0.000000  0.000000  0.000000  0.000000  0.000000  0.000000  0.000000  0.000000
                                 0.000000  0.000000  0.000000  0.000000  0.000000  0.000000  0.000000  0.000000  0.000000  0.000000
                                 0.000000  0.000000  0.000000  0.041861 -0.099827  0.057966 -0.292569  0.102253 -0.088118 -0.163648
                                 0.390256 -0.226608  1.143745 -0.399741  0.344482 -0.446489  1.064754 -0.618265  3.120536 -1.090632
                                 0.939866 -0.001534  0.003658 -0.002124  0.010721 -0.003747  0.003229  0.000191 -0.000455  0.000264
                                -0.001334  0.000466 -0.000402  0.116364 -0.277496  0.161132 -0.813272  0.284240 -0.244947  0.000000
                                 0.000000  0.000000  0.000000  0.000000  0.000000  0.000000  0.000000  0.000000  0.000000  0.000000
                                 0.000000  0.000000  0.000000  0.000000  0.000000  0.000000  0.000000  0.000000  0.000000  0.000000
                                 0.000000  0.000000  0.000000  0.000000  0.000000  0.000000  0.000000  0.000000  0.000000  0.000000
                                 0.000000  0.000000  0.000000  0.000000  0.000000  0.000000  0.000000  0.000000  0.000000  0.120078
                                -0.287429  0.166841 -0.549474  0.191891 -0.551307 -0.166037  0.192497 -0.166072 -0.047903  0.083540
                                -0.035188 -0.073457  0.086576 -0.246421  0.211286 -0.489369  0.284948 -0.965796  0.339577 -0.941125
                                -0.283579  0.331427 -0.283117 -0.096114  0.151495 -0.061411 -0.137551  0.141635 -0.422646

  23.1   0     0.6715   -0.5544  0.000000  0.000000  0.000000  0.000000  0.000000  0.000000  0.000000  0.000000  0.000000  0.000000
                                 0.000000  0.000000  0.000000  0.000000  0.000000  0.000000  0.000000  0.000000  0.000000  0.000000
                                 0.000000  0.000000  0.000000  0.000000  0.000000  0.000000  0.000000  0.000000  0.000000  0.000000
                                 0.000000  0.000000  0.000000  0.199624 -0.026434 -0.173190 -0.056366 -0.238492 -0.082370 -0.780392
                                 0.103339  0.677054  0.220352  0.932341  0.322011 -2.129182  0.281944  1.847239  0.601196  2.543752
                                 0.878559 -0.007315  0.000969  0.006346  0.002065  0.008739  0.003018  0.000910 -0.000121 -0.000790
                                -0.000257 -0.001087 -0.000376  0.554906 -0.073480 -0.481426 -0.156683 -0.662951 -0.228969  0.000000
                                 0.000000  0.000000  0.000000  0.000000  0.000000  0.000000  0.000000  0.000000  0.000000  0.000000
                                 0.000000  0.000000  0.000000  0.000000  0.000000  0.000000  0.000000  0.000000  0.000000  0.000000
                                 0.000000  0.000000  0.000000  0.000000  0.000000  0.000000  0.000000  0.000000  0.000000  0.000000
                                 0.000000  0.000000  0.000000  0.000000  0.000000  0.000000  0.000000  0.000000  0.000000  0.572618
                                -0.076110 -0.498485 -0.106175 -0.448460 -0.106202 -0.155246 -0.448857 -0.155105  0.146200  0.023740
                                -0.168203 -0.068792 -0.200874 -0.047069  1.007565 -0.129583 -0.851361 -0.181833 -0.779900 -0.181474
                                -0.264553 -0.774557 -0.266446  0.245768  0.018330 -0.287480 -0.126877 -0.344523 -0.086894

  24.1   0     0.6778   -0.5471 -0.983756 -4.591562  2.661538 -3.753328  4.489970 -0.223218 -0.038232 -0.006957  1.016275  0.000000
                                 0.000000  0.000000  0.000000  0.000000  0.000000  0.000000  0.000000  0.000000  0.000000  0.000000
                                 0.000000  0.000000  0.000000  0.000000  0.000000  0.000000  0.000000  0.000000  0.000000  0.000000
                                 0.000000  0.000000  0.000000 -0.127961  0.288836  0.249767 -0.096960 -0.178777 -0.034663  2.217740
                                 0.583937  0.737084  0.380075  0.700789  0.135877  1.715571 -2.726012 -2.309673  1.033255  1.905134
                                 0.369389  0.001333 -0.013984 -0.012548  0.003563  0.006570  0.001274 -0.002222 -0.000319 -0.000497
                                -0.000443 -0.000816 -0.000158 -1.299363 -0.146012 -0.254123 -0.268306 -0.494709 -0.095920  0.000000
                                 0.000000  0.000000  0.000000  0.000000  0.000000  0.000000  0.000000  0.000000  0.000000  0.000000
                                 0.000000  0.000000  0.000000  0.000000  0.000000  0.000000  0.000000  0.000000  0.000000  0.000000
                                 0.000000  0.000000  0.000000  0.000000  0.000000  0.000000  0.000000  0.000000  0.000000  0.000000
                                 0.000000  0.000000  0.000000  0.000000  0.000000  0.000000  0.000000  0.000000  0.000000 -0.804973
                                 0.393906  0.281151 -0.181907 -0.335404 -0.183256 -0.065514 -0.337657 -0.065469 -0.121434 -0.153709
                                 0.197652 -0.028635 -0.151022 -0.081738 -0.736000  1.339052  1.149691 -0.325245 -0.599693 -0.306788
                                -0.109677 -0.568852 -0.110296  0.191416  0.125895  0.728417 -0.058132 -0.254161 -0.140166

  25.1   0     0.7442   -0.2323  0.000000  0.000000  0.000000  0.000000  0.000000  0.000000  0.000000  0.000000  0.000000  0.000000
                                 0.000000  0.000000  0.000000  0.000000  0.000000  0.000000  0.000000  0.000000  0.000000  0.000000
                                 0.000000  0.000000  0.000000  0.000000  0.000000  0.000000  0.000000  0.000000  0.000000  0.000000
                                 0.000000  0.000000  0.000000  0.000000  0.000000  0.000000  0.000000  0.000000  0.000000  0.000000
                                 0.000000  0.000000  0.000000  0.000000  0.000000  0.000000  0.000000  0.000000  0.000000  0.000000
                                 0.000000  0.000000  0.000000  0.000000  0.000000  0.000000  0.000000  0.000000  0.000000  0.000000
                                 0.000000  0.000000  0.000000  0.000000  0.000000  0.000000  0.000000  0.000000  0.000000  0.001493
                                 0.028850  0.013995 -0.005052 -0.002864 -0.001816 -0.015912 -0.000187 -0.033654  0.017455 -0.007903
                                -0.152681 -0.074066  0.026737  0.015157  0.009611  0.084213  0.000992  0.178106 -0.092378 -0.000001
                                -0.000027 -0.000013  0.000005  0.000003  0.000002  0.000015  0.000000  0.000032 -0.000017  0.040797
                                 0.788193  0.382355 -0.138026 -0.078246 -0.049616 -0.434737 -0.005119 -0.919446  0.476885  0.000000
                                 0.000000  0.000000  0.000000  0.000000  0.000000  0.000000  0.000000  0.000000  0.000000  0.000000
                                 0.000000  0.000000  0.000000  0.000000  0.000000  0.000000  0.000000  0.000000  0.000000  0.000000
                                 0.000000  0.000000  0.000000  0.000000  0.000000  0.000000  0.000000  0.000000  0.000000

  26.1   0     0.7442   -0.2323  0.000000  0.000000  0.000000  0.000000  0.000000  0.000000  0.000000  0.000000  0.000000  0.000000
                                 0.000000  0.000000  0.000000  0.000000  0.000000  0.000000  0.000000  0.000000  0.000000  0.000000
                                 0.000000  0.000000  0.000000  0.000000  0.000000  0.000000  0.000000  0.000000  0.000000  0.000000
                                 0.000000  0.000000  0.000000  0.000000  0.000000  0.000000  0.000000  0.000000  0.000000  0.000000
                                 0.000000  0.000000  0.000000  0.000000  0.000000  0.000000  0.000000  0.000000  0.000000  0.000000
                                 0.000000  0.000000  0.000000  0.000000  0.000000  0.000000  0.000000  0.000000  0.000000  0.000000
                                 0.000000  0.000000  0.000000  0.000000  0.000000  0.000000  0.000000  0.000000  0.000000 -0.000864
                                -0.010538  0.023211 -0.003316  0.005040  0.015676 -0.036181 -0.014517  0.017455  0.000895  0.004570
                                 0.055772 -0.122839  0.017552 -0.026671 -0.082961  0.191477  0.076829 -0.092377 -0.004735  0.000001
                                 0.000010 -0.000022  0.000003 -0.000005 -0.000015  0.000034  0.000014 -0.000017 -0.000001 -0.023594
                                -0.287913  0.634137 -0.090607  0.137687  0.428275 -0.988471 -0.396619  0.476883  0.024445  0.000000
                                 0.000000  0.000000  0.000000  0.000000  0.000000  0.000000  0.000000  0.000000  0.000000  0.000000
                                 0.000000  0.000000  0.000000  0.000000  0.000000  0.000000  0.000000  0.000000  0.000000  0.000000
                                 0.000000  0.000000  0.000000  0.000000  0.000000  0.000000  0.000000  0.000000  0.000000

  27.1   0     0.7561   -0.3882  0.000000  0.000000  0.000000  0.000000  0.000000  0.000000  0.000000  0.000000  0.000000 -2.076394
                                -0.402595 -0.742312  3.233510  0.626950  1.155982 -4.904728 -0.950985 -1.753443 -6.960651 -1.349610
                                -2.488437  0.082134  0.015925  0.029363  0.011155  0.002163  0.003988 -0.001508 -0.000292 -0.000539
                                 0.710788  0.137816  0.254107  0.000000  0.000000  0.000000  0.000000  0.000000  0.000000  0.000000
                                 0.000000  0.000000  0.000000  0.000000  0.000000  0.000000  0.000000  0.000000  0.000000  0.000000
                                 0.000000  0.000000  0.000000  0.000000  0.000000  0.000000  0.000000  0.000000  0.000000  0.000000
                                 0.000000  0.000000  0.000000  0.000000  0.000000  0.000000  0.000000  0.000000  0.000000 -0.169159
                                -0.025957 -0.049042 -0.021026 -0.038769 -0.061103 -0.021844 -0.065540 -0.012708 -0.003937  3.348150
                                 0.605553  1.124070  0.330864  0.610053  1.404579  0.502138  1.432874  0.277822  0.025105 -0.010451
                                -0.002040 -0.003760 -0.000893 -0.001647 -0.004703 -0.001681 -0.004694 -0.000910  0.000008  4.540257
                                 1.100938  1.991800  0.188652  0.347840  2.499577  0.893600  2.356478  0.456901 -0.126961  0.000000
                                 0.000000  0.000000  0.000000  0.000000  0.000000  0.000000  0.000000  0.000000  0.000000  0.000000
                                 0.000000  0.000000  0.000000  0.000000  0.000000  0.000000  0.000000  0.000000  0.000000  0.000000
                                 0.000000  0.000000  0.000000  0.000000  0.000000  0.000000  0.000000  0.000000  0.000000

  28.1   0     0.7578   -0.4812  0.000000  0.000000  0.000000  0.000000  0.000000  0.000000  0.000000  0.000000  0.000000  0.819566
                                -0.620786 -1.955803 -1.254556  0.950272  2.993859  1.934862 -1.465574 -4.617334  2.672516 -2.024315
                                -6.377663 -0.031791  0.024080  0.075866 -0.004322  0.003274  0.010314  0.000602 -0.000456 -0.001436
                                -0.272295  0.206252  0.649803  0.000000  0.000000  0.000000  0.000000  0.000000  0.000000  0.000000
                                 0.000000  0.000000  0.000000  0.000000  0.000000  0.000000  0.000000  0.000000  0.000000  0.000000
                                 0.000000  0.000000  0.000000  0.000000  0.000000  0.000000  0.000000  0.000000  0.000000  0.000000
                                 0.000000  0.000000  0.000000  0.000000  0.000000  0.000000  0.000000  0.000000  0.000000  0.076643
                                -0.043668 -0.141825 -0.022540 -0.075485  0.023190 -0.062453  0.011519 -0.023052 -0.006769 -1.367059
                                 0.946699  3.008824  0.441962  1.420014 -0.542946  1.339581 -0.470919  0.445119  0.041774  0.004053
                                -0.003095 -0.009744 -0.001379 -0.004336  0.001832 -0.004360  0.001853 -0.001378  0.000012 -1.425588
                                 1.524935  4.672900  0.588801  1.716668 -0.980552  2.119897 -1.341637  0.572973 -0.209422  0.000000
                                 0.000000  0.000000  0.000000  0.000000  0.000000  0.000000  0.000000  0.000000  0.000000  0.000000
                                 0.000000  0.000000  0.000000  0.000000  0.000000  0.000000  0.000000  0.000000  0.000000  0.000000
                                 0.000000  0.000000  0.000000  0.000000  0.000000  0.000000  0.000000  0.000000  0.000000

  29.1   0     0.7578   -0.4812  0.000000  0.000000  0.000000  0.000000  0.000000  0.000000  0.000000  0.000000  0.000000 -0.145694
                                 2.083114 -0.722247  0.223022 -3.188740  1.105584 -0.343960  4.917892 -1.705107 -0.475093  6.792808
                                -2.355169  0.005651 -0.080804  0.028016  0.000768 -0.010986  0.003809 -0.000107  0.001530 -0.000530
                                 0.048406 -0.692101  0.239962  0.000000  0.000000  0.000000  0.000000  0.000000  0.000000  0.000000
                                 0.000000  0.000000  0.000000  0.000000  0.000000  0.000000  0.000000  0.000000  0.000000  0.000000
                                 0.000000  0.000000  0.000000  0.000000  0.000000  0.000000  0.000000  0.000000  0.000000  0.000000
                                 0.000000  0.000000  0.000000  0.000000  0.000000  0.000000  0.000000  0.000000  0.000000 -0.013625
                                 0.146532 -0.052374  0.086511 -0.031328  0.004116 -0.019611 -0.010286  0.066476  0.007393  0.243022
                                -3.176752  1.111111 -1.550174  0.545694  0.045676  0.473380  0.134558 -1.426522 -0.045630 -0.000720
                                 0.010387 -0.003598  0.004608 -0.001595 -0.000340 -0.001616 -0.000315  0.004643 -0.000013  0.253427
                                -5.117084  1.725627 -1.639283  0.527129  0.429200  0.889653 -0.016385 -2.259177  0.228752  0.000000
                                 0.000000  0.000000  0.000000  0.000000  0.000000  0.000000  0.000000  0.000000  0.000000  0.000000
                                 0.000000  0.000000  0.000000  0.000000  0.000000  0.000000  0.000000  0.000000  0.000000  0.000000
                                 0.000000  0.000000  0.000000  0.000000  0.000000  0.000000  0.000000  0.000000  0.000000

  30.1   0     0.7623   -0.2126  0.000000  0.000000  0.000000  0.000000  0.000000  0.000000  0.000000  0.000000  0.000000  0.000000
                                 0.000000  0.000000  0.000000  0.000000  0.000000  0.000000  0.000000  0.000000  0.000000  0.000000
                                 0.000000  0.000000  0.000000  0.000000  0.000000  0.000000  0.000000  0.000000  0.000000  0.000000
                                 0.000000  0.000000  0.000000  0.000000  0.000000  0.000000  0.000000  0.000000  0.000000  0.000000
                                 0.000000  0.000000  0.000000  0.000000  0.000000  0.000000  0.000000  0.000000  0.000000  0.000000
                                 0.000000  0.000000  0.000000  0.000000  0.000000  0.000000  0.000000  0.000000  0.000000  0.000000
                                 0.000000  0.000000  0.000000  0.000000  0.000000  0.000000  0.000000  0.000000  0.000000  0.005335
                                -0.013952  0.023817  0.014035 -0.019857 -0.029549 -0.012098  0.022391  0.004683 -0.001283 -0.028109
                                 0.073506 -0.125482 -0.073945  0.104615  0.155677  0.063736 -0.117964 -0.024673  0.006760 -0.000005
                                 0.000013 -0.000022 -0.000013  0.000019  0.000028  0.000011 -0.000021 -0.000004  0.000001  0.142819
                                -0.373469  0.637550  0.375701 -0.531530 -0.790967 -0.323833  0.599355  0.125359 -0.034349  0.000000
                                 0.000000  0.000000  0.000000  0.000000  0.000000  0.000000  0.000000  0.000000  0.000000  0.000000
                                 0.000000  0.000000  0.000000  0.000000  0.000000  0.000000  0.000000  0.000000  0.000000  0.000000
                                 0.000000  0.000000  0.000000  0.000000  0.000000  0.000000  0.000000  0.000000  0.000000

  31.1   0     0.7623   -0.2126  0.000000  0.000000  0.000000  0.000000  0.000000  0.000000  0.000000  0.000000  0.000000  0.000000
                                 0.000000  0.000000  0.000000  0.000000  0.000000  0.000000  0.000000  0.000000  0.000000  0.000000
                                 0.000000  0.000000  0.000000  0.000000  0.000000  0.000000  0.000000  0.000000  0.000000  0.000000
                                 0.000000  0.000000  0.000000  0.000000  0.000000  0.000000  0.000000  0.000000  0.000000  0.000000
                                 0.000000  0.000000  0.000000  0.000000  0.000000  0.000000  0.000000  0.000000  0.000000  0.000000
                                 0.000000  0.000000  0.000000  0.000000  0.000000  0.000000  0.000000  0.000000  0.000000  0.000000
                                 0.000000  0.000000  0.000000  0.000000  0.000000  0.000000  0.000000  0.000000  0.000000  0.009184
                                -0.001589 -0.000354 -0.019968 -0.010247 -0.007690  0.010722 -0.004631  0.022099  0.030231 -0.048385
                                 0.008370  0.001865  0.105201  0.053988  0.040517 -0.056490  0.024399 -0.116430 -0.159272 -0.000009
                                 0.000001  0.000000  0.000019  0.000010  0.000007 -0.000010  0.000004 -0.000021 -0.000029  0.245837
                                -0.042527 -0.009476 -0.534506 -0.274302 -0.205858  0.287015 -0.123968  0.591562  0.809232  0.000000
                                 0.000000  0.000000  0.000000  0.000000  0.000000  0.000000  0.000000  0.000000  0.000000  0.000000
                                 0.000000  0.000000  0.000000  0.000000  0.000000  0.000000  0.000000  0.000000  0.000000  0.000000
                                 0.000000  0.000000  0.000000  0.000000  0.000000  0.000000  0.000000  0.000000  0.000000

  32.1   0     0.7804   -0.3126  0.000000  0.000000  0.000000  0.000000  0.000000  0.000000  0.000000  0.000000  0.000000  0.115420
                                -1.462729  0.470462 -0.176753  2.240007 -0.720461  0.272029 -3.447448  1.108814  0.358381 -4.541797
                                 1.460793 -0.004527  0.057373 -0.018453 -0.000616  0.007808 -0.002511  0.000083 -0.001051  0.000338
                                -0.036121  0.457766 -0.147233  0.000000  0.000000  0.000000  0.000000  0.000000  0.000000  0.000000
                                 0.000000  0.000000  0.000000  0.000000  0.000000  0.000000  0.000000  0.000000  0.000000  0.000000
                                 0.000000  0.000000  0.000000  0.000000  0.000000  0.000000  0.000000  0.000000  0.000000  0.000000
                                 0.000000  0.000000  0.000000  0.000000  0.000000  0.000000  0.000000  0.000000  0.000000  0.003430
                                -0.132951  0.040064 -0.020713  0.003907  0.020816  0.024888 -0.005166 -0.057560  0.013908 -0.149590
                                 2.336724 -0.738274  0.854086 -0.261126 -0.161917 -0.364518 -0.033880  1.035666 -0.068536  0.000579
[...]
                                 0.236394  0.074300  0.332382 -0.025367 -0.409279  0.000635  0.408656 -0.028753  0.376736 -0.028756
                                 0.084213  0.376740  0.084212 -0.119642 -0.000197  0.119828  0.037658  0.168485 -0.012863

 130.1   0   115.6663  221.2245  0.042581  0.196145 -0.119115  0.062523 -0.058449  0.004640  0.001030  0.002314 -0.000397  0.000000
                                 0.000000  0.000000  0.000000  0.000000  0.000000  0.000000  0.000000  0.000000  0.000000  0.000000
                                 0.000000  0.000000  0.000000  0.000000  0.000000  0.000000  0.000000  0.000000  0.000000  0.000000
                                 0.000000  0.000000  0.000000 -0.593432  0.341990  0.254307 -0.217609 -0.401232 -0.077795  2.033139
                                -1.250519 -0.942719  0.763884  1.408464  0.273089  0.528028 -0.303090 -0.225184  0.193345  0.356493
                                 0.069121  0.478543 -0.268946 -0.198879  0.173890  0.320621  0.062166 -0.912062  0.525443  0.390696
                                -0.334410 -0.616591 -0.119552 -0.053780  0.031255  0.023284 -0.019782 -0.036474 -0.007072  0.000000
                                 0.000000  0.000000  0.000000  0.000000  0.000000  0.000000  0.000000  0.000000  0.000000  0.000000
                                 0.000000  0.000000  0.000000  0.000000  0.000000  0.000000  0.000000  0.000000  0.000000  0.000000
                                 0.000000  0.000000  0.000000  0.000000  0.000000  0.000000  0.000000  0.000000  0.000000  0.000000
                                 0.000000  0.000000  0.000000  0.000000  0.000000  0.000000  0.000000  0.000000  0.000000 -1.165933
                                 0.683250  0.509917 -0.281624 -0.519263 -0.281613 -0.100677 -0.519245 -0.100677 -0.141306 -0.192059
                                 0.349323 -0.045029 -0.232213 -0.125943 -0.608935  0.328417  0.240550 -0.142748 -0.263201 -0.142757
                                -0.051036 -0.263217 -0.051036 -0.082135 -0.107855  0.166576 -0.022819 -0.117714 -0.063841

 131.1   0   133.1858  256.5833  0.000000  0.000000  0.000000  0.000000  0.000000  0.000000  0.000000  0.000000  0.000000  0.002364
                                -0.309065  0.161009  0.012259 -1.602421  0.834787  0.014033 -1.834405  0.955640  0.001994 -0.260670
                                 0.135797 -0.014916  1.949764 -1.015737 -0.017127  2.238729 -1.166274  0.003296 -0.430889  0.224473
                                -0.000185  0.024203 -0.012608  0.000000  0.000000  0.000000  0.000000  0.000000  0.000000  0.000000
                                 0.000000  0.000000  0.000000  0.000000  0.000000  0.000000  0.000000  0.000000  0.000000  0.000000
                                 0.000000  0.000000  0.000000  0.000000  0.000000  0.000000  0.000000  0.000000  0.000000  0.000000
                                 0.000000  0.000000  0.000000  0.000000  0.000000  0.000000  0.000000  0.000000  0.000000 -0.009922
                                 1.296946 -0.675650  0.580019 -0.302163 -0.004434 -0.302158 -0.004440  0.580012  0.000002 -0.008861
                                 1.158343 -0.603443  0.518024 -0.269867 -0.003964 -0.269868 -0.003962  0.518027 -0.000001  0.017242
                                -2.253214  1.173847 -1.007916  0.525079  0.007609  0.524913  0.007805 -1.007673 -0.000076 -0.002465
                                 0.322233 -0.167868  0.144107 -0.075073 -0.001102 -0.075073 -0.001103  0.144107  0.000000  0.000000
                                 0.000000  0.000000  0.000000  0.000000  0.000000  0.000000  0.000000  0.000000  0.000000  0.000000
                                 0.000000  0.000000  0.000000  0.000000  0.000000  0.000000  0.000000  0.000000  0.000000  0.000000
                                 0.000000  0.000000  0.000000  0.000000  0.000000  0.000000  0.000000  0.000000  0.000000

 132.1   0   133.1858  256.5833  0.000000  0.000000  0.000000  0.000000  0.000000  0.000000  0.000000  0.000000  0.000000  0.131268
                                -0.148363 -0.286719  0.680592 -0.769223 -1.486561  0.779122 -0.880584 -1.701771  0.110714 -0.125131
                                -0.241823 -0.828118  0.935960  1.808790 -0.950850  1.074675  2.076862  0.183010 -0.206843 -0.399734
                                -0.010279  0.011618  0.022453  0.000000  0.000000  0.000000  0.000000  0.000000  0.000000  0.000000
                                 0.000000  0.000000  0.000000  0.000000  0.000000  0.000000  0.000000  0.000000  0.000000  0.000000
                                 0.000000  0.000000  0.000000  0.000000  0.000000  0.000000  0.000000  0.000000  0.000000  0.000000
                                 0.000000  0.000000  0.000000  0.000000  0.000000  0.000000  0.000000  0.000000  0.000000 -0.550855
                                 0.622583  1.203174  0.278430  0.538079 -0.246346  0.538076 -0.246342  0.278429  0.000003 -0.491978
                                 0.556048  1.074590  0.248672  0.480570 -0.220021  0.480571 -0.220022  0.248672 -0.000001  0.957238
                                -1.081628 -2.090348 -0.483796 -0.934963  0.427936 -0.934828  0.427823 -0.483763 -0.000096 -0.136861
                                 0.154684  0.298934  0.069177  0.133688 -0.061206  0.133687 -0.061206  0.069177  0.000000  0.000000
                                 0.000000  0.000000  0.000000  0.000000  0.000000  0.000000  0.000000  0.000000  0.000000  0.000000
                                 0.000000  0.000000  0.000000  0.000000  0.000000  0.000000  0.000000  0.000000  0.000000  0.000000
                                 0.000000  0.000000  0.000000  0.000000  0.000000  0.000000  0.000000  0.000000  0.000000

 133.1   0   133.2259  256.6240  0.000000  0.000000  0.000000  0.000000  0.000000  0.000000  0.000000  0.000000  0.000000 -0.323372
                                -0.062699 -0.115606 -1.674378 -0.324647 -0.598591 -1.916086 -0.371513 -0.685002 -0.272128 -0.052763
                                -0.097286  2.037220  0.394999  0.728307  2.337853  0.453290  0.835784 -0.449909 -0.087234 -0.160843
                                 0.025278  0.004901  0.009037  0.000000  0.000000  0.000000  0.000000  0.000000  0.000000  0.000000
                                 0.000000  0.000000  0.000000  0.000000  0.000000  0.000000  0.000000  0.000000  0.000000  0.000000
                                 0.000000  0.000000  0.000000  0.000000  0.000000  0.000000  0.000000  0.000000  0.000000  0.000000
                                 0.000000  0.000000  0.000000  0.000000  0.000000  0.000000  0.000000  0.000000  0.000000  1.355213
                                 0.262761  0.484484  0.117515  0.216676  0.606063  0.216668  0.606065  0.117511  0.000002  1.210103
                                 0.234630  0.432614  0.104928  0.193469  0.541176  0.193471  0.541176  0.104929 -0.000001 -2.353922
                                -0.456293 -0.841341 -0.204215 -0.376536 -1.052467 -0.376258 -1.052540 -0.204078 -0.000065  0.336584
                                 0.065261  0.120329  0.029186  0.053813  0.150525  0.053813  0.150525  0.029185  0.000000  0.000000
                                 0.000000  0.000000  0.000000  0.000000  0.000000  0.000000  0.000000  0.000000  0.000000  0.000000
                                 0.000000  0.000000  0.000000  0.000000  0.000000  0.000000  0.000000  0.000000  0.000000  0.000000
                                 0.000000  0.000000  0.000000  0.000000  0.000000  0.000000  0.000000  0.000000  0.000000

 134.1   0   169.5467  328.9921 61.415632297.729485**********107.898501-88.656073  9.968482 -8.006622  7.604540 -0.612391  0.000000
                                 0.000000  0.000000  0.000000  0.000000  0.000000  0.000000  0.000000  0.000000  0.000000  0.000000
                                 0.000000  0.000000  0.000000  0.000000  0.000000  0.000000  0.000000  0.000000  0.000000  0.000000
                                 0.000000  0.000000  0.000000  1.124851  1.124718  1.124730  0.000031  0.000057  0.000011-85.165237
                               -85.164751-85.164797 -0.000113 -0.000208 -0.000040 -0.309211 -0.309091 -0.309102 -0.000028 -0.000051
                                -0.000010  4.796551  4.796639  4.796630 -0.000020 -0.000037 -0.000007  5.324372  5.324233  5.324246
                                 0.000032  0.000060  0.000012  0.389192  0.389180  0.389181  0.000003  0.000005  0.000001  0.000000
                                 0.000000  0.000000  0.000000  0.000000  0.000000  0.000000  0.000000  0.000000  0.000000  0.000000
                                 0.000000  0.000000  0.000000  0.000000  0.000000  0.000000  0.000000  0.000000  0.000000  0.000000
                                 0.000000  0.000000  0.000000  0.000000  0.000000  0.000000  0.000000  0.000000  0.000000  0.000000
                                 0.000000  0.000000  0.000000  0.000000  0.000000  0.000000  0.000000  0.000000  0.000000 14.401595
                                14.401320 14.401345  0.000042  0.000077  0.000042  0.000015  0.000077  0.000015  8.432630  8.432638
                                 8.432557  0.000007  0.000035  0.000019-21.090337-21.090472-21.090460  0.000021  0.000038  0.000021
                                 0.000007  0.000038  0.000007-12.349276-12.349273-12.349312  0.000003  0.000017  0.000009

 135.1   0   307.6864  603.8787  0.000000  0.000000  0.000000  0.000000  0.000000  0.000000  0.000000  0.000000  0.000000  0.029774
                                 0.177953 -0.179797  0.123622  0.738866 -0.746522  0.143406  0.857109 -0.865991  0.019876  0.118796
                                -0.120027 -0.167985 -1.004014  1.014418 -0.504279 -3.013973  3.045204  0.310787  1.857512 -1.876759
                                -0.001969 -0.011766  0.011888  0.000000  0.000000  0.000000  0.000000  0.000000  0.000000  0.000000
                                 0.000000  0.000000  0.000000  0.000000  0.000000  0.000000  0.000000  0.000000  0.000000  0.000000
                                 0.000000  0.000000  0.000000  0.000000  0.000000  0.000000  0.000000  0.000000  0.000000  0.000000
                                 0.000000  0.000000  0.000000  0.000000  0.000000  0.000000  0.000000  0.000000  0.000000 -0.102161
                                -0.610595  0.616922 -0.273066  0.275896 -0.045688  0.275896 -0.045688 -0.273066  0.000000 -0.091885
                                -0.549176  0.554867 -0.245600  0.248144 -0.041092  0.248144 -0.041092 -0.245599  0.000000  0.297826
                                 1.780035 -1.798481  0.796061 -0.804309  0.133193 -0.804304  0.133188  0.796056  0.000001 -0.025923
                                -0.154939  0.156545 -0.069291  0.070009 -0.011593  0.070009 -0.011594 -0.069291  0.000000  0.000000
                                 0.000000  0.000000  0.000000  0.000000  0.000000  0.000000  0.000000  0.000000  0.000000  0.000000
                                 0.000000  0.000000  0.000000  0.000000  0.000000  0.000000  0.000000  0.000000  0.000000  0.000000
                                 0.000000  0.000000  0.000000  0.000000  0.000000  0.000000  0.000000  0.000000  0.000000

 136.1   0   307.6864  603.8787  0.000000  0.000000  0.000000  0.000000  0.000000  0.000000  0.000000  0.000000  0.000000 -0.091224
                                 0.176410  0.159494 -0.378764  0.732459  0.662225 -0.439378  0.849677  0.768203 -0.060898  0.117766
                                 0.106473  0.514686 -0.995309 -0.899870  1.545048 -2.987840 -2.701341 -0.952213  1.841406  1.664836
                                 0.006032 -0.011664 -0.010546  0.000000  0.000000  0.000000  0.000000  0.000000  0.000000  0.000000
                                 0.000000  0.000000  0.000000  0.000000  0.000000  0.000000  0.000000  0.000000  0.000000  0.000000
                                 0.000000  0.000000  0.000000  0.000000  0.000000  0.000000  0.000000  0.000000  0.000000  0.000000
                                 0.000000  0.000000  0.000000  0.000000  0.000000  0.000000  0.000000  0.000000  0.000000  0.313008
                                -0.605301 -0.547259 -0.270698 -0.244742  0.139982 -0.244742  0.139982 -0.270699  0.000000  0.281524
                                -0.544414 -0.492211 -0.243470 -0.220124  0.125901 -0.220124  0.125901 -0.243470  0.000000 -0.912501
                                 1.764601  1.595397  0.789157  0.713485 -0.408079  0.713484 -0.408078  0.789155  0.000003  0.079426
                                -0.153596 -0.138868 -0.068690 -0.062103  0.035521 -0.062104  0.035521 -0.068690  0.000000  0.000000
                                 0.000000  0.000000  0.000000  0.000000  0.000000  0.000000  0.000000  0.000000  0.000000  0.000000
                                 0.000000  0.000000  0.000000  0.000000  0.000000  0.000000  0.000000  0.000000  0.000000  0.000000
                                 0.000000  0.000000  0.000000  0.000000  0.000000  0.000000  0.000000  0.000000  0.000000

 137.1   0   307.7084  603.9009  0.000000  0.000000  0.000000  0.000000  0.000000  0.000000  0.000000  0.000000  0.000000  0.236120
                                 0.045782  0.084413  0.979839  0.189982  0.350293  1.136465  0.220351  0.406287  0.157471  0.030532
                                 0.056296 -1.331482 -0.258163 -0.476006 -3.996486 -0.774884 -1.428746  2.462945  0.477544  0.880504
                                -0.015601 -0.003025 -0.005577  0.000000  0.000000  0.000000  0.000000  0.000000  0.000000  0.000000
                                 0.000000  0.000000  0.000000  0.000000  0.000000  0.000000  0.000000  0.000000  0.000000  0.000000
                                 0.000000  0.000000  0.000000  0.000000  0.000000  0.000000  0.000000  0.000000  0.000000  0.000000
                                 0.000000  0.000000  0.000000  0.000000  0.000000  0.000000  0.000000  0.000000  0.000000 -0.809743
                                -0.157003 -0.289484 -0.070213 -0.129461 -0.362129 -0.129461 -0.362129 -0.070214  0.000000 -0.728223
                                -0.141196 -0.260340 -0.063145 -0.116428 -0.325671 -0.116427 -0.325671 -0.063145  0.000000  2.360423
                                 0.457663  0.843848  0.204677  0.377387  1.055608  0.377380  1.055609  0.204674  0.000001 -0.205440
                                -0.039833 -0.073445 -0.017814 -0.032845 -0.091876 -0.032846 -0.091876 -0.017814  0.000000  0.000000
                                 0.000000  0.000000  0.000000  0.000000  0.000000  0.000000  0.000000  0.000000  0.000000  0.000000
                                 0.000000  0.000000  0.000000  0.000000  0.000000  0.000000  0.000000  0.000000  0.000000  0.000000
                                 0.000000  0.000000  0.000000  0.000000  0.000000  0.000000  0.000000  0.000000  0.000000

 138.1   0   375.3784  739.5602 30.964153140.945199-83.816659 34.139224-41.540526-50.271057145.644076-56.602924 -0.223626  0.000000
                                 0.000000  0.000000  0.000000  0.000000  0.000000  0.000000  0.000000  0.000000  0.000000  0.000000
                                 0.000000  0.000000  0.000000  0.000000  0.000000  0.000000  0.000000  0.000000  0.000000  0.000000
                                 0.000000  0.000000  0.000000  1.485552  1.485565  1.485564 -0.000003 -0.000006 -0.000001-35.613081
                               -35.613131-35.613126  0.000012  0.000021  0.000004 -0.250013 -0.250025 -0.250024  0.000003  0.000005
                                 0.000001 13.092400 13.092392 13.092392  0.000002  0.000004  0.000001-28.427153-28.427138-28.427140
                                -0.000003 -0.000006 -0.000001  0.141628  0.141629  0.141629  0.000000 -0.000001  0.000000  0.000000
                                 0.000000  0.000000  0.000000  0.000000  0.000000  0.000000  0.000000  0.000000  0.000000  0.000000
                                 0.000000  0.000000  0.000000  0.000000  0.000000  0.000000  0.000000  0.000000  0.000000  0.000000
                                 0.000000  0.000000  0.000000  0.000000  0.000000  0.000000  0.000000  0.000000  0.000000  0.000000
                                 0.000000  0.000000  0.000000  0.000000  0.000000  0.000000  0.000000  0.000000  0.000000  6.424259
                                 6.424288  6.424285 -0.000004 -0.000008 -0.000004 -0.000002 -0.000008 -0.000002  3.761669  3.761669
                                 3.761677 -0.000001 -0.000004 -0.000002 -8.651965 -8.651952 -8.651953 -0.000002 -0.000004 -0.000002
                                -0.000001 -0.000004 -0.000001 -5.066068 -5.066068 -5.066064  0.000000 -0.000002 -0.000001

 139.1   0   904.8885 1797.5593231.241286727.639476**********  5.183001**********-82.776905178.712715-83.562990 -0.935925  0.000000
                                 0.000000  0.000000  0.000000  0.000000  0.000000  0.000000  0.000000  0.000000  0.000000  0.000000
                                 0.000000  0.000000  0.000000  0.000000  0.000000  0.000000  0.000000  0.000000  0.000000  0.000000
                                 0.000000  0.000000  0.000000  2.978666  2.978665  2.978665  0.000000  0.000001  0.000000**********
                               ******************** -0.000002 -0.000003 -0.000001 -0.494765 -0.494764 -0.494764  0.000000 -0.000001
                                 0.000000 22.754899 22.754899 22.754899  0.000000  0.000000  0.000000-34.725459-34.725460-34.725460
                                 0.000000  0.000000  0.000000  0.594078  0.594078  0.594078  0.000000  0.000000  0.000000  0.000000
                                 0.000000  0.000000  0.000000  0.000000  0.000000  0.000000  0.000000  0.000000  0.000000  0.000000
                                 0.000000  0.000000  0.000000  0.000000  0.000000  0.000000  0.000000  0.000000  0.000000  0.000000
                                 0.000000  0.000000  0.000000  0.000000  0.000000  0.000000  0.000000  0.000000  0.000000  0.000000
                                 0.000000  0.000000  0.000000  0.000000  0.000000  0.000000  0.000000  0.000000  0.000000 22.399951
                                22.399946 22.399947  0.000001  0.000001  0.000001  0.000000  0.000001  0.000000 13.116067 13.116067
                                13.116066  0.000000  0.000001  0.000000-32.189910-32.189911-32.189911  0.000000  0.000000  0.000000
                                 0.000000  0.000000  0.000000-18.848482-18.848482-18.848482  0.000000  0.000000  0.000000


 **********************************************************************************************************************************
 DATASETS  * FILE   NREC   LENGTH (MB)   RECORD NAMES
              1      19       48.97       500      610      700      900      950      970     1000     1100     1400     1410   
                                          VAR    BASINP    GEOM    SYMINP    ZMAT    AOBASIS   BASIS      S        T        V 
                                         1200     1210     1080     1600      129      960     1650     1300     1700   
                                          H0       H01     AOSYM     SMH      P2S    ABASIS   MOLCAS    ERIS     OPER   
 
              2       3        0.65       700     1000     2100   
                                         GEOM     BASIS     RHF  
 
 PROGRAMS   *        TOTAL        HF       INT
 CPU TIMES  *        18.87      9.74      9.01
 REAL TIME  *        20.59 SEC
 DISK USED  *       214.67 MB      
 **********************************************************************************************************************************

        HF-SCF  
    -37.60468075
 **********************************************************************************************************************************
 Variable memory released
