1         ******************************************************
          *            GAMESS VERSION =  6 JUN 1999            *
          *             FROM IOWA STATE UNIVERSITY             *
          * M.W.SCHMIDT, K.K.BALDRIDGE, J.A.BOATZ, S.T.ELBERT, *
          *   M.S.GORDON, J.H.JENSEN, S.KOSEKI, N.MATSUNAGA,   *
          *          K.A.NGUYEN, S.J.SU, T.L.WINDUS,           *
          *       TOGETHER WITH M.DUPUIS, J.A.MONTGOMERY       *
          *         J.COMPUT.CHEM.  14, 1347-1363(1993)        *
          *******Intel x86 (Win32,Linux,OS/2,DOS) VERSION*******
          *      PC GAMESS version 6.2, build number 2068      *
          *   Compiled on    Friday,    21-09-2001, 00:37:32   *
          *      Intel specific optimization, bug fixes,       *
          *    code changes, and additional functionality -    *
          *  copyright (c) 1994, 2001 by Alex. A. Granovsky,   *
          *        Laboratory of Chemical Cybernetics,         *
          *      Moscow State University, Moscow, Russia.      *
          *   Some parts of this program include code due to   *
          * work of Jim Kress, Peter Burger, and Robert Ponec. *
          ******************************************************
          *                   PC GAMESS URLs:                  *
          * http://classic.chem.msu.su/gran/gamess/index.html  *
          * http://quantum-2.chem.msu.ru/gran/gamess/index.html*
          *          E-mail: gran@classic.chem.msu.su          *
          *   This program may not be redistributed without    *
          * the specific, written permission of its developers.*
          ******************************************************


 Pentium II / Win32  PC GAMESS version running under Windows NT
 Running on AMD CPU  :  CPU Generation  7, Family  6, Model  4, Stepping  4
 CPU Brand String    :  AMD Athlon(tm) Processor                        
 CPU Features        :  CMOV, MMX           
 Data cache size     :  L1 64 KB, L2  256 KB


 EXECUTION OF GAMESS BEGUN 18:34:50 LT  24-MAR-2003

            ECHO OF THE FIRST FEW INPUT CARDS -
 INPUT CARD>! Bench 1                                                                       
 INPUT CARD>! This is a RHF/6-31G* run on silacyclopropane, with 61 AOs.                    
 INPUT CARD>! It comes from a study of cycloalkanes and silacycloalkanes by                 
 INPUT CARD>! J.A.Boatz, M.S.Gordon, and R.L.Hilderbrandt,                                  
 INPUT CARD>! J.Am.Chem.Soc., 1988, 110, 352-358.                                           
 INPUT CARD>!                                                                               
 INPUT CARD>! The FINAL energy is -368.0867960698 after 10 iterations,                      
 INPUT CARD>! running the SCF in direct mode.                                               
 INPUT CARD>!                                                                               
 INPUT CARD>! This run requires 150 seconds on a RS/6000-350                                
 INPUT CARD>! This run requires 1 Mbyte of disk storage.                                    
 INPUT CARD>!                                                                               
 INPUT CARD> $CONTRL SCFTYP=RHF  RUNTYP=ENERGY NPRINT=3 UNITS=ANGS $END                     
 INPUT CARD> $SYSTEM TIMLIM=600 MEMORY=200000 $END                                          
 INPUT CARD> $SCF    DIRSCF=.True. $END                                                     
 INPUT CARD> $GUESS  GUESS=HUCKEL   $END                                                    
 INPUT CARD> $BASIS  GBASIS=N31 NGAUSS=6 NDFUNC=1 $END                                      
 INPUT CARD> $DATA                                                                          
 INPUT CARD>RHF/6-31G*//RHF/3-21G* silacyclopropane                                         
 INPUT CARD>Cnv      2                                                                      
 INPUT CARD>                                                                                
 INPUT CARD>SILICON    14.0     0.0           0.0           0.831921                        
 INPUT CARD>CARBON      6.0     0.0           0.793934     -0.836953                        
 INPUT CARD>HYDROGEN    1.0    -1.227947      0.0           1.637848                        
 INPUT CARD>HYDROGEN    1.0    -0.897288      1.249560     -1.219788                        
 INPUT CARD> $END                                                                           
     200000 WORDS OF MEMORY AVAILABLE

     BASIS OPTIONS
     -------------
     GBASIS=N31          IGAUSS=       6      POLAR=POPLE   
     NDFUNC=       1     DIFFSP=       F
     NPFUNC=       0      DIFFS=       F


     RUN TITLE
     ---------
 RHF/6-31G*//RHF/3-21G* silacyclopropane                                         

 THE POINT GROUP OF THE MOLECULE IS CNV     
 THE ORDER OF THE PRINCIPAL AXIS IS     2

 ATOM      ATOMIC                      COORDINATES (BOHR)
           CHARGE         X                   Y                   Z
 SILICON    14.0     0.0000000000        0.0000000000        1.5721027334
 CARBON      6.0     0.0000000000       -1.5003177123       -1.5816118346
 CARBON      6.0     0.0000000000        1.5003177123       -1.5816118346
 HYDROGEN    1.0     2.3204833574        0.0000000000        3.0950839295
 HYDROGEN    1.0    -2.3204833574        0.0000000000        3.0950839295
 HYDROGEN    1.0     1.6956284521       -2.3613260052       -2.3050650831
 HYDROGEN    1.0    -1.6956284521       -2.3613260052       -2.3050650831
 HYDROGEN    1.0     1.6956284521        2.3613260052       -2.3050650831
 HYDROGEN    1.0    -1.6956284521        2.3613260052       -2.3050650831

          INTERNUCLEAR DISTANCES (ANGS.)
          ------------------------------

                    SILICON        CARBON         CARBON         HYDROGEN  

  1  SILICON         0.0000000      1.8480995 *    1.8480995 *    1.4687996 *  
  2  CARBON          1.8480995 *    0.0000000      1.5878680 *    2.8745130 *  
  3  CARBON          1.8480995 *    1.5878680 *    0.0000000      2.8745130 *  
  4  HYDROGEN        1.4687996 *    2.8745130 *    2.8745130 *    0.0000000    
  5  HYDROGEN        1.4687996 *    2.8745130 *    2.8745130 *    2.4558940 *  
  6  HYDROGEN        2.5643782 *    1.0767003 *    2.2644108 *    3.1363704    
  7  HYDROGEN        2.5643782 *    1.0767003 *    2.2644108 *    3.7741367    
  8  HYDROGEN        2.5643782 *    2.2644108 *    1.0767003 *    3.1363704    
  9  HYDROGEN        2.5643782 *    2.2644108 *    1.0767003 *    3.7741367    

                    HYDROGEN       HYDROGEN       HYDROGEN       HYDROGEN  

  1  SILICON         1.4687996 *    2.5643782 *    2.5643782 *    2.5643782 *  
  2  CARBON          2.8745130 *    1.0767003 *    1.0767003 *    2.2644108 *  
  3  CARBON          2.8745130 *    2.2644108 *    2.2644108 *    1.0767003 *  
  4  HYDROGEN        2.4558940 *    3.1363704      3.7741367      3.1363704    
  5  HYDROGEN        0.0000000      3.7741367      3.1363704      3.7741367    
  6  HYDROGEN        3.7741367      0.0000000      1.7945760 *    2.4991200 *  
  7  HYDROGEN        3.1363704      1.7945760 *    0.0000000      3.0767034    
  8  HYDROGEN        3.7741367      2.4991200 *    3.0767034      0.0000000    
  9  HYDROGEN        3.1363704      3.0767034      2.4991200 *    1.7945760 *  

                    HYDROGEN  

  1  SILICON         2.5643782 *  
  2  CARBON          2.2644108 *  
  3  CARBON          1.0767003 *  
  4  HYDROGEN        3.7741367    
  5  HYDROGEN        3.1363704    
  6  HYDROGEN        3.0767034    
  7  HYDROGEN        2.4991200 *  
  8  HYDROGEN        1.7945760 *  
  9  HYDROGEN        0.0000000    

  * ... LESS THAN  3.000


     ATOMIC BASIS SET
     ----------------
 THE CONTRACTED PRIMITIVE FUNCTIONS HAVE BEEN UNNORMALIZED
 THE CONTRACTED BASIS FUNCTIONS ARE NOW NORMALIZED TO UNITY

 SHELL TYPE PRIM    EXPONENT          CONTRACTION COEFFICIENTS

 SILICON   

   1   S    1   16192.100000    1.994126 (  0.001949) 
   1   S    2    2436.090000    3.671377 (  0.014856) 
   1   S    3     556.001000    5.921983 (  0.072569) 
   1   S    4     156.813000    7.758399 (  0.245655) 
   1   S    5      50.169200    6.530219 (  0.486060) 
   1   S    6      17.030000    1.946101 (  0.325720) 

   2   L    7     293.350000   -0.142963 ( -0.002830)     7.671917 (  0.004433) 
   2   L    8      70.117300   -0.622974 ( -0.036074)     9.382212 (  0.032440) 
   2   L    9      22.430100   -0.858038 ( -0.116808)     9.304057 (  0.133719) 
   2   L   10       8.194250    0.323006 (  0.093577)     6.457765 (  0.326780) 
   2   L   11       3.147680    1.013414 (  0.601705)     2.696118 (  0.451139) 
   2   L   12       1.215150    0.348152 (  0.422072)     0.480291 (  0.264105) 

   3   L   13       1.653700   -0.250061 ( -0.240600)    -0.040570 ( -0.015177) 
   3   L   14       0.540760    0.033166 (  0.073795)     0.181865 (  0.275139) 
   3   L   15       0.204406    0.225530 (  1.040940)     0.153399 (  0.783008) 

   4   L   16       0.072384    0.099458 (  1.000000)     0.053517 (  1.000000) 

   5   D   17       0.395000    0.323932 (  1.000000) 

 CARBON    

  10   S   18    3047.524880    0.536345 (  0.001835) 
  10   S   19     457.369518    0.989452 (  0.014037) 
  10   S   20     103.948685    1.597283 (  0.068843) 
  10   S   21      29.210155    2.079187 (  0.232184) 
  10   S   22       9.286663    1.774174 (  0.467941) 
  10   S   23       3.163927    0.612580 (  0.362312) 

  11   L   24       7.868272   -0.399556 ( -0.119332)     1.296082 (  0.068999) 
  11   L   25       1.881289   -0.184155 ( -0.160854)     0.993754 (  0.316424) 
  11   L   26       0.544249    0.516390 (  1.143456)     0.495953 (  0.744308) 

  12   L   27       0.168714    0.187618 (  1.000000)     0.154128 (  1.000000) 

  13   D   28       0.800000    1.113825 (  1.000000) 

 HYDROGEN  

  16   S   29      18.731137    0.214935 (  0.033495) 
  16   S   30       2.825394    0.364571 (  0.234727) 
  16   S   31       0.640122    0.415051 (  0.813757) 

  17   S   32       0.161278    0.181381 (  1.000000) 

 HYDROGEN  

  24   S   33      18.731137    0.214935 (  0.033495) 
  24   S   34       2.825394    0.364571 (  0.234727) 
  24   S   35       0.640122    0.415051 (  0.813757) 

  25   S   36       0.161278    0.181381 (  1.000000) 

 TOTAL NUMBER OF SHELLS              =   25
 TOTAL NUMBER OF BASIS FUNCTIONS     =   61
 NUMBER OF ELECTRONS                 =   32
 CHARGE OF MOLECULE                  =    0
 STATE MULTIPLICITY                  =    1
 NUMBER OF OCCUPIED ORBITALS (ALPHA) =   16
 NUMBER OF OCCUPIED ORBITALS (BETA ) =   16
 TOTAL NUMBER OF ATOMS               =    9
 THE NUCLEAR REPULSION ENERGY IS      106.3765244696

     $CONTRL OPTIONS
     ---------------
     SCFTYP=RHF          RUNTYP=ENERGY       EXETYP=RUN     
     MPLEVL=       0     LOCAL =NONE         UNITS =ANGS    
     MULT  =       1     ICHARG=       0     MAXIT =      30
     NPRINT=       3     IREST =       0     COORD =UNIQUE  
     ECP   =NONE         NORMF =       0     NORMP =       0
     ITOL  =      20     ICUT  =       9     NZVAR =       0
     NOSYM =       0     INTTYP=POPLE        GEOM  =INPUT   
     PLTORB=       F     MOLPLT=       F     RPAC  =       F
     AIMPAC=       F     FRIEND=             CITYP =NONE    

     $SYSTEM OPTIONS
     ---------------
     KDIAG =       0     MEMORY=   200000     TIMLIM=    36000.0 SEC.
     COREFL=       F     PTIME =        F     XDR   =       F
     BALTYP=NXTVAL  

          ----------------
          PROPERTIES INPUT
          ----------------

     MOMENTS            FIELD           POTENTIAL          DENSITY
 IEMOM =       1   IEFLD =       0   IEPOT =       0   IEDEN =       0
 WHERE =COMASS     WHERE =NUCLEI     WHERE =NUCLEI     WHERE =NUCLEI  
 OUTPUT=BOTH       OUTPUT=BOTH       OUTPUT=BOTH       OUTPUT=BOTH    
 IEMINT=       0   IEFINT=       0                     IEDINT=       0
                                                       MORB  =       0

          EXTRAPOLATION IN EFFECT
          SOSCF IN EFFECT

          ----------------------
          INTEGRAL INPUT OPTIONS
          ----------------------
 NOPK  =       1 NORDER=       0 SCHWRZ=       T

 ATTENTION! AO INTEGRALS WILL BE PACKED.
 THRESHOLD FOR PACKING PKTHR =  0.10000000D-01

     -------------------------------
     INTEGRAL TRANSFORMATION OPTIONS
     -------------------------------
     NWORD  =       0     CUTOFF = 1.0E-09
     MPTRAN =       0     DIRTRF =       T
     AOINTS =DUP          IREST  =       0

     ------------------------------------------
     THE POINT GROUP IS CNV, NAXIS= 2, ORDER= 4
     ------------------------------------------

     DIMENSIONS OF THE SYMMETRY SUBSPACES ARE
 A1  =  25      A2  =   7      B1  =  12      B2  =  17

 ..... DONE SETTING UP THE RUN .....

 CPU        TIME:   STEP =      0.02 ,  TOTAL =        0.0 SECONDS (    0.0 MIN)
 WALL CLOCK TIME:   STEP =      0.03 ,  TOTAL =        0.0 SECONDS (    0.0 MIN)
 CPU UTILIZATION:   STEP =     66.76%,  TOTAL =     133.53%

          ********************
          1 ELECTRON INTEGRALS
          ********************
OVERLAP MATRIX

                      1          2          3          4          5

    1  SI  1  S   1.000000
    2  SI  1  S   0.250560   1.000000
    3  SI  1  X   0.000000   0.000000   1.000000
    4  SI  1  Y   0.000000   0.000000   0.000000   1.000000
    5  SI  1  Z   0.000000   0.000000   0.000000   0.000000   1.000000
    6  SI  1  S   0.007677   0.289028   0.000000   0.000000   0.000000
    7  SI  1  X   0.000000   0.000000   0.272169   0.000000   0.000000
    8  SI  1  Y   0.000000   0.000000   0.000000   0.272169   0.000000
    9  SI  1  Z   0.000000   0.000000   0.000000   0.000000   0.272169
   10  SI  1  S   0.027848   0.231579   0.000000   0.000000   0.000000
   11  SI  1  X   0.000000   0.000000   0.065144   0.000000   0.000000
   12  SI  1  Y   0.000000   0.000000   0.000000   0.065144   0.000000
   13  SI  1  Z   0.000000   0.000000   0.000000   0.000000   0.065144
   14  SI  1 XX   0.001732   0.135158   0.000000   0.000000   0.000000
   15  SI  1 YY   0.001732   0.135158   0.000000   0.000000   0.000000
   16  SI  1 ZZ   0.001732   0.135158   0.000000   0.000000   0.000000
   17  SI  1 XY   0.000000   0.000000   0.000000   0.000000   0.000000
   18  SI  1 XZ   0.000000   0.000000   0.000000   0.000000   0.000000
   19  SI  1 YZ   0.000000   0.000000   0.000000   0.000000   0.000000
   20  C   2  S   0.000000   0.000003   0.000000  -0.000005  -0.000010
   21  C   2  S   0.000212   0.005834   0.000000  -0.003782  -0.007950
   22  C   2  X   0.000000   0.000000   0.002240   0.000000   0.000000
   23  C   2  Y   0.000299   0.006183   0.000000  -0.001816  -0.008527
   24  C   2  Z   0.000629   0.012997   0.000000  -0.008527  -0.015683
   25  C   2  S   0.006764   0.062171   0.000000  -0.015567  -0.032723
   26  C   2  X   0.000000   0.000000   0.025261   0.000000   0.000000
   27  C   2  Y   0.008281   0.069520   0.000000   0.007811  -0.036681
   28  C   2  Z   0.017408   0.146133   0.000000  -0.036681  -0.051844
   29  C   2 XX   0.000000   0.000564   0.000000  -0.000464  -0.000976
   30  C   2 YY   0.000050   0.002774   0.000000  -0.000716  -0.004879
   31  C   2 ZZ   0.000219   0.010327   0.000000  -0.008669  -0.014847
   32  C   2 XY   0.000000   0.000000   0.001390   0.000000   0.000000
   33  C   2 XZ   0.000000   0.000000   0.002923   0.000000   0.000000
   34  C   2 YZ   0.000180   0.008044   0.000000  -0.003838  -0.012820
   35  C   3  S   0.000000   0.000003   0.000000   0.000005  -0.000010
   36  C   3  S   0.000212   0.005834   0.000000   0.003782  -0.007950
   37  C   3  X   0.000000   0.000000   0.002240   0.000000   0.000000
   38  C   3  Y  -0.000299  -0.006183   0.000000  -0.001816   0.008527
   39  C   3  Z   0.000629   0.012997   0.000000   0.008527  -0.015683
   40  C   3  S   0.006764   0.062171   0.000000   0.015567  -0.032723
   41  C   3  X   0.000000   0.000000   0.025261   0.000000   0.000000
   42  C   3  Y  -0.008281  -0.069520   0.000000   0.007811   0.036681
   43  C   3  Z   0.017408   0.146133   0.000000   0.036681  -0.051844
   44  C   3 XX   0.000000   0.000564   0.000000   0.000464  -0.000976
   45  C   3 YY   0.000050   0.002774   0.000000   0.000716  -0.004879
   46  C   3 ZZ   0.000219   0.010327   0.000000   0.008669  -0.014847
   47  C   3 XY   0.000000   0.000000  -0.001390   0.000000   0.000000
   48  C   3 XZ   0.000000   0.000000   0.002923   0.000000   0.000000
   49  C   3 YZ  -0.000180  -0.008044   0.000000  -0.003838   0.012820
   50  H   4  S   0.000917   0.018124   0.020796   0.000000   0.013649
   51  H   4  S   0.014699   0.126182   0.046987   0.000000   0.030838
   52  H   5  S   0.000917   0.018124  -0.020796   0.000000   0.013649
   53  H   5  S   0.014699   0.126182  -0.046987   0.000000   0.030838
   54  H   6  S   0.000000   0.000018   0.000015  -0.000020  -0.000033
   55  H   6  S   0.001173   0.012438   0.003368  -0.004690  -0.007700
   56  H   7  S   0.000000   0.000018  -0.000015  -0.000020  -0.000033
   57  H   7  S   0.001173   0.012438  -0.003368  -0.004690  -0.007700
   58  H   8  S   0.000000   0.000018   0.000015   0.000020  -0.000033
   59  H   8  S   0.001173   0.012438   0.003368   0.004690  -0.007700
   60  H   9  S   0.000000   0.000018  -0.000015   0.000020  -0.000033
   61  H   9  S   0.001173   0.012438  -0.003368   0.004690  -0.007700

                      6          7          8          9         10

    6  SI  1  S   1.000000
    7  SI  1  X   0.000000   1.000000
    8  SI  1  Y   0.000000   0.000000   1.000000
    9  SI  1  Z   0.000000   0.000000   0.000000   1.000000
   10  SI  1  S   0.834908   0.000000   0.000000   0.000000   1.000000
   11  SI  1  X   0.000000   0.657574   0.000000   0.000000   0.000000
   12  SI  1  Y   0.000000   0.000000   0.657574   0.000000   0.000000
   13  SI  1  Z   0.000000   0.000000   0.000000   0.657574   0.000000
   14  SI  1 XX   0.728997   0.000000   0.000000   0.000000   0.600629
   15  SI  1 YY   0.728997   0.000000   0.000000   0.000000   0.600629
   16  SI  1 ZZ   0.728997   0.000000   0.000000   0.000000   0.600629
   17  SI  1 XY   0.000000   0.000000   0.000000   0.000000   0.000000
   18  SI  1 XZ   0.000000   0.000000   0.000000   0.000000   0.000000
   19  SI  1 YZ   0.000000   0.000000   0.000000   0.000000   0.000000
   20  C   2  S   0.020237   0.000000  -0.020265  -0.042597   0.042254
   21  C   2  S   0.154945   0.000000  -0.124130  -0.260925   0.250868
   22  C   2  X   0.000000   0.086471   0.000000   0.000000   0.000000
   23  C   2  Y   0.071659   0.000000   0.022931  -0.133563   0.050801
   24  C   2  Z   0.150629   0.000000  -0.133563  -0.194282   0.106785
   25  C   2  S   0.330516   0.000000  -0.177774  -0.373685   0.473197
   26  C   2  X   0.000000   0.288475   0.000000   0.000000   0.000000
   27  C   2  Y   0.219084   0.000000   0.162361  -0.265096   0.175097
   28  C   2  Z   0.460521   0.000000  -0.265096  -0.268765   0.368059
   29  C   2 XX   0.095812   0.000000  -0.081914  -0.172186   0.193098
   30  C   2 YY   0.113969   0.000000  -0.055165  -0.212255   0.198319
   31  C   2 ZZ   0.176038   0.000000  -0.166139  -0.252934   0.216167
   32  C   2 XY   0.000000   0.039674   0.000000   0.000000   0.000000
   33  C   2 XZ   0.000000   0.083395   0.000000   0.000000   0.000000
   34  C   2 YZ   0.066106   0.000000   0.013995  -0.106209   0.019009
   35  C   3  S   0.020237   0.000000   0.020265  -0.042597   0.042254
   36  C   3  S   0.154945   0.000000   0.124130  -0.260925   0.250868
   37  C   3  X   0.000000   0.086471   0.000000   0.000000   0.000000
   38  C   3  Y  -0.071659   0.000000   0.022931   0.133563  -0.050801
   39  C   3  Z   0.150629   0.000000   0.133563  -0.194282   0.106785
   40  C   3  S   0.330516   0.000000   0.177774  -0.373685   0.473197
   41  C   3  X   0.000000   0.288475   0.000000   0.000000   0.000000
   42  C   3  Y  -0.219084   0.000000   0.162361   0.265096  -0.175097
   43  C   3  Z   0.460521   0.000000   0.265096  -0.268765   0.368059
   44  C   3 XX   0.095812   0.000000   0.081914  -0.172186   0.193098
   45  C   3 YY   0.113969   0.000000   0.055165  -0.212255   0.198319
   46  C   3 ZZ   0.176038   0.000000   0.166139  -0.252934   0.216167
   47  C   3 XY   0.000000  -0.039674   0.000000   0.000000   0.000000
   48  C   3 XZ   0.000000   0.083395   0.000000   0.000000   0.000000
   49  C   3 YZ  -0.066106   0.000000   0.013995   0.106209  -0.019009
   50  H   4  S   0.226069   0.320233   0.000000   0.210175   0.256183
   51  H   4  S   0.502895   0.420826   0.000000   0.276197   0.605222
   52  H   5  S   0.226069  -0.320233   0.000000   0.210175   0.256183
   53  H   5  S   0.502895  -0.420826   0.000000   0.276197   0.605222
   54  H   6  S   0.018734   0.016843  -0.023455  -0.038512   0.091068
   55  H   6  S   0.123812   0.069575  -0.096890  -0.159088   0.275132
   56  H   7  S   0.018734  -0.016843  -0.023455  -0.038512   0.091068
   57  H   7  S   0.123812  -0.069575  -0.096890  -0.159088   0.275132
   58  H   8  S   0.018734   0.016843   0.023455  -0.038512   0.091068
   59  H   8  S   0.123812   0.069575   0.096890  -0.159088   0.275132
   60  H   9  S   0.018734  -0.016843   0.023455  -0.038512   0.091068
   61  H   9  S   0.123812  -0.069575   0.096890  -0.159088   0.275132

                     11         12         13         14         15

   11  SI  1  X   1.000000
   12  SI  1  Y   0.000000   1.000000
   13  SI  1  Z   0.000000   0.000000   1.000000
   14  SI  1 XX   0.000000   0.000000   0.000000   1.000000
   15  SI  1 YY   0.000000   0.000000   0.000000   0.333333   1.000000
   16  SI  1 ZZ   0.000000   0.000000   0.000000   0.333333   0.333333
   17  SI  1 XY   0.000000   0.000000   0.000000   0.000000   0.000000
   18  SI  1 XZ   0.000000   0.000000   0.000000   0.000000   0.000000
   19  SI  1 YZ   0.000000   0.000000   0.000000   0.000000   0.000000
   20  C   2  S   0.000000  -0.033572  -0.070569   0.000377   0.007075
   21  C   2  S   0.000000  -0.177356  -0.372808   0.032987   0.077005
   22  C   2  X   0.125854   0.000000   0.000000   0.000000   0.000000
   23  C   2  Y   0.000000   0.089330  -0.076774   0.020802  -0.007672
   24  C   2  Z   0.000000  -0.076774  -0.035527   0.043727   0.112634
   25  C   2  S   0.000000  -0.267322  -0.561918   0.167711   0.205835
   26  C   2  X   0.433785   0.000000   0.000000   0.000000   0.000000
   27  C   2  Y   0.000000   0.334868  -0.207926   0.144840   0.054036
   28  C   2  Z   0.000000  -0.207926  -0.003282   0.304458   0.373668
   29  C   2 XX   0.000000  -0.142953  -0.300492   0.032103   0.036502
   30  C   2 YY   0.000000  -0.120950  -0.308617   0.016991   0.028403
   31  C   2 ZZ   0.000000  -0.160031  -0.282014   0.038494   0.131304
   32  C   2 XY   0.022403   0.000000   0.000000   0.000000   0.000000
   33  C   2 XZ   0.047092   0.000000   0.000000   0.000000   0.000000
   34  C   2 YZ   0.000000   0.033019  -0.007177   0.022901  -0.014647
   35  C   3  S   0.000000   0.033572  -0.070569   0.000377   0.007075
   36  C   3  S   0.000000   0.177356  -0.372808   0.032987   0.077005
   37  C   3  X   0.125854   0.000000   0.000000   0.000000   0.000000
   38  C   3  Y   0.000000   0.089330   0.076774  -0.020802   0.007672
   39  C   3  Z   0.000000   0.076774  -0.035527   0.043727   0.112634
   40  C   3  S   0.000000   0.267322  -0.561918   0.167711   0.205835
   41  C   3  X   0.433785   0.000000   0.000000   0.000000   0.000000
   42  C   3  Y   0.000000   0.334868   0.207926  -0.144840  -0.054036
   43  C   3  Z   0.000000   0.207926  -0.003282   0.304458   0.373668
   44  C   3 XX   0.000000   0.142953  -0.300492   0.032103   0.036502
   45  C   3 YY   0.000000   0.120950  -0.308617   0.016991   0.028403
   46  C   3 ZZ   0.000000   0.160031  -0.282014   0.038494   0.131304
   47  C   3 XY  -0.022403   0.000000   0.000000   0.000000   0.000000
   48  C   3 XZ   0.047092   0.000000   0.000000   0.000000   0.000000
   49  C   3 YZ   0.000000   0.033019   0.007177  -0.022901   0.014647
   50  H   4  S   0.289753   0.000000   0.190171   0.310357   0.053528
   51  H   4  S   0.521592   0.000000   0.342332   0.441025   0.293322
   52  H   5  S  -0.289753   0.000000   0.190171   0.310357   0.053528
   53  H   5  S  -0.521592   0.000000   0.342332   0.441025   0.293322
   54  H   6  S   0.075218  -0.104748  -0.171991   0.003710   0.006150
   55  H   6  S   0.173264  -0.241287  -0.396180   0.061091   0.073250
   56  H   7  S  -0.075218  -0.104748  -0.171991   0.003710   0.006150
   57  H   7  S  -0.173264  -0.241287  -0.396180   0.061091   0.073250
   58  H   8  S   0.075218   0.104748  -0.171991   0.003710   0.006150
   59  H   8  S   0.173264   0.241287  -0.396180   0.061091   0.073250
   60  H   9  S  -0.075218   0.104748  -0.171991   0.003710   0.006150
   61  H   9  S  -0.173264   0.241287  -0.396180   0.061091   0.073250

                     16         17         18         19         20

   16  SI  1 ZZ   1.000000
   17  SI  1 XY   0.000000   1.000000
   18  SI  1 XZ   0.000000   0.000000   1.000000
   19  SI  1 YZ   0.000000   0.000000   0.000000   1.000000
   20  C   2  S   0.029975   0.000000   0.000000   0.024389   1.000000
   21  C   2  S   0.227483   0.000000   0.000000   0.160263   0.219059
   22  C   2  X   0.000000  -0.053048  -0.111509   0.000000   0.000000
   23  C   2  Y   0.165646   0.000000   0.000000   0.007841   0.000000
   24  C   2  Z   0.219434   0.000000   0.000000   0.197829   0.000000
   25  C   2  S   0.336165   0.000000   0.000000   0.138804   0.184261
   26  C   2  X   0.000000  -0.107153  -0.225239   0.000000   0.000000
   27  C   2  Y   0.290322   0.000000   0.000000  -0.105364   0.000000
   28  C   2  Z   0.350182   0.000000   0.000000   0.144829   0.000000
   29  C   2 XX   0.124703   0.000000   0.000000   0.093937   0.079103
   30  C   2 YY   0.198003   0.000000   0.000000   0.056389   0.079103
   31  C   2 ZZ   0.244827   0.000000   0.000000   0.245144   0.079103
   32  C   2 XY   0.000000  -0.006114  -0.080335   0.000000   0.000000
   33  C   2 XZ   0.000000  -0.080335  -0.136763   0.000000   0.000000
   34  C   2 YZ   0.174108   0.000000   0.000000   0.026048   0.000000
   35  C   3  S   0.029975   0.000000   0.000000  -0.024389   0.000000
   36  C   3  S   0.227483   0.000000   0.000000  -0.160263   0.005719
   37  C   3  X   0.000000   0.053048  -0.111509   0.000000   0.000000
   38  C   3  Y  -0.165646   0.000000   0.000000   0.007841  -0.014632
   39  C   3  Z   0.219434   0.000000   0.000000  -0.197829   0.000000
   40  C   3  S   0.336165   0.000000   0.000000  -0.138804   0.042589
   41  C   3  X   0.000000   0.107153  -0.225239   0.000000   0.000000
   42  C   3  Y  -0.290322   0.000000   0.000000  -0.105364  -0.101204
   43  C   3  Z   0.350182   0.000000   0.000000  -0.144829   0.000000
   44  C   3 XX   0.124703   0.000000   0.000000  -0.093937   0.000217
   45  C   3 YY   0.198003   0.000000   0.000000  -0.056389   0.013139
   46  C   3 ZZ   0.244827   0.000000   0.000000  -0.245144   0.000217
   47  C   3 XY   0.000000  -0.006114   0.080335   0.000000   0.000000
   48  C   3 XZ   0.000000   0.080335  -0.136763   0.000000   0.000000
   49  C   3 YZ  -0.174108   0.000000   0.000000   0.026048   0.000000
   50  H   4  S   0.164159   0.000000   0.291959   0.000000   0.000000
   51  H   4  S   0.356946   0.000000   0.167906   0.000000   0.001806
   52  H   5  S   0.164159   0.000000  -0.291959   0.000000   0.000000
   53  H   5  S   0.356946   0.000000  -0.167906   0.000000   0.001806
   54  H   6  S   0.014692  -0.006264  -0.010286   0.014324   0.034701
   55  H   6  S   0.115827  -0.031224  -0.051268   0.071396   0.093692
   56  H   7  S   0.014692   0.006264   0.010286   0.014324   0.034701
   57  H   7  S   0.115827   0.031224   0.051268   0.071396   0.093692
   58  H   8  S   0.014692   0.006264  -0.010286  -0.014324   0.000014
   59  H   8  S   0.115827   0.031224  -0.051268  -0.071396   0.010314
   60  H   9  S   0.014692  -0.006264   0.010286  -0.014324   0.000014
   61  H   9  S   0.115827  -0.031224   0.051268  -0.071396   0.010314

                     21         22         23         24         25

   21  C   2  S   1.000000
   22  C   2  X   0.000000   1.000000
   23  C   2  Y   0.000000   0.000000   1.000000
   24  C   2  Z   0.000000   0.000000   0.000000   1.000000
   25  C   2  S   0.812273   0.000000   0.000000   0.000000   1.000000
   26  C   2  X   0.000000   0.569754   0.000000   0.000000   0.000000
   27  C   2  Y   0.000000   0.000000   0.569754   0.000000   0.000000
   28  C   2  Z   0.000000   0.000000   0.000000   0.569754   0.000000
   29  C   2 XX   0.710235   0.000000   0.000000   0.000000   0.629936
   30  C   2 YY   0.710235   0.000000   0.000000   0.000000   0.629936
   31  C   2 ZZ   0.710235   0.000000   0.000000   0.000000   0.629936
   32  C   2 XY   0.000000   0.000000   0.000000   0.000000   0.000000
   33  C   2 XZ   0.000000   0.000000   0.000000   0.000000   0.000000
   34  C   2 YZ   0.000000   0.000000   0.000000   0.000000   0.000000
   35  C   3  S   0.005719   0.000000   0.014632   0.000000   0.042589
   36  C   3  S   0.105586   0.000000   0.165895   0.000000   0.260639
   37  C   3  X   0.000000   0.054693   0.000000   0.000000   0.000000
   38  C   3  Y  -0.165895   0.000000  -0.232420   0.000000  -0.214173
   39  C   3  Z   0.000000   0.000000   0.000000   0.054693   0.000000
   40  C   3  S   0.260639   0.000000   0.214173   0.000000   0.467883
   41  C   3  X   0.000000   0.173770   0.000000   0.000000   0.000000
   42  C   3  Y  -0.482056   0.000000  -0.237932   0.000000  -0.576669
   43  C   3  Z   0.000000   0.000000   0.000000   0.173770   0.000000
   44  C   3 XX   0.041058   0.000000   0.072467   0.000000   0.179668
   45  C   3 YY   0.196836   0.000000   0.286818   0.000000   0.274737
   46  C   3 ZZ   0.041058   0.000000   0.072467   0.000000   0.179668
   47  C   3 XY   0.000000  -0.089837   0.000000   0.000000   0.000000
   48  C   3 XZ   0.000000   0.000000   0.000000   0.000000   0.000000
   49  C   3 YZ   0.000000   0.000000   0.000000  -0.089837   0.000000
   50  H   4  S   0.000158   0.000190   0.000123   0.000384   0.012284
   51  H   4  S   0.021436   0.012223   0.007903   0.024634   0.087736
   52  H   5  S   0.000158  -0.000190   0.000123   0.000384   0.012284
   53  H   5  S   0.021436  -0.012223   0.007903   0.024634   0.087736
   54  H   6  S   0.282141   0.314840  -0.159870  -0.134329   0.382361
   55  H   6  S   0.482158   0.221654  -0.112552  -0.094570   0.710533
   56  H   7  S   0.282141  -0.314840  -0.159870  -0.134329   0.382361
   57  H   7  S   0.482158  -0.221654  -0.112552  -0.094570   0.710533
   58  H   8  S   0.004263   0.003827   0.008715  -0.001633   0.055813
   59  H   8  S   0.085013   0.036717   0.083619  -0.015665   0.220861
   60  H   9  S   0.004263  -0.003827   0.008715  -0.001633   0.055813
   61  H   9  S   0.085013  -0.036717   0.083619  -0.015665   0.220861

                     26         27         28         29         30

   26  C   2  X   1.000000
   27  C   2  Y   0.000000   1.000000
   28  C   2  Z   0.000000   0.000000   1.000000
   29  C   2 XX   0.000000   0.000000   0.000000   1.000000
   30  C   2 YY   0.000000   0.000000   0.000000   0.333333   1.000000
   31  C   2 ZZ   0.000000   0.000000   0.000000   0.333333   0.333333
   32  C   2 XY   0.000000   0.000000   0.000000   0.000000   0.000000
   33  C   2 XZ   0.000000   0.000000   0.000000   0.000000   0.000000
   34  C   2 YZ   0.000000   0.000000   0.000000   0.000000   0.000000
   35  C   3  S   0.000000   0.101204   0.000000   0.000217   0.013139
   36  C   3  S   0.000000   0.482056   0.000000   0.041058   0.196836
   37  C   3  X   0.173770   0.000000   0.000000   0.000000   0.000000
   38  C   3  Y   0.000000  -0.237932   0.000000  -0.072467  -0.286818
   39  C   3  Z   0.000000   0.000000   0.173770   0.000000   0.000000
   40  C   3  S   0.000000   0.576669   0.000000   0.179668   0.274737
   41  C   3  X   0.467883   0.000000   0.000000   0.000000   0.000000
   42  C   3  Y   0.000000  -0.242866   0.000000  -0.365750  -0.405013
   43  C   3  Z   0.000000   0.000000   0.467883   0.000000   0.000000
   44  C   3 XX   0.000000   0.365750   0.000000   0.027282   0.074599
   45  C   3 YY   0.000000   0.405013   0.000000   0.074599   0.368107
   46  C   3 ZZ   0.000000   0.365750   0.000000   0.009094   0.074599
   47  C   3 XY  -0.133600   0.000000   0.000000   0.000000   0.000000
   48  C   3 XZ   0.000000   0.000000   0.000000   0.000000   0.000000
   49  C   3 YZ   0.000000   0.000000  -0.133600   0.000000   0.000000
   50  H   4  S   0.018735   0.012113   0.037758   0.000058   0.000033
   51  H   4  S   0.081740   0.052849   0.164738   0.015277   0.013271
   52  H   5  S  -0.018735   0.012113   0.037758   0.000058   0.000033
   53  H   5  S  -0.081740   0.052849   0.164738   0.015277   0.013271
   54  H   6  S   0.429960  -0.218326  -0.183446   0.361227   0.183750
   55  H   6  S   0.483718  -0.245623  -0.206382   0.411594   0.370465
   56  H   7  S  -0.429960  -0.218326  -0.183446   0.361227   0.183750
   57  H   7  S  -0.483718  -0.245623  -0.206382   0.411594   0.370465
   58  H   8  S   0.062409   0.142130  -0.026627   0.002034   0.007327
   59  H   8  S   0.150358   0.342427  -0.064151   0.061437   0.096070
   60  H   9  S  -0.062409   0.142130  -0.026627   0.002034   0.007327
   61  H   9  S  -0.150358   0.342427  -0.064151   0.061437   0.096070

                     31         32         33         34         35

   31  C   2 ZZ   1.000000
   32  C   2 XY   0.000000   1.000000
   33  C   2 XZ   0.000000   0.000000   1.000000
   34  C   2 YZ   0.000000   0.000000   0.000000   1.000000
   35  C   3  S   0.000217   0.000000   0.000000   0.000000   1.000000
   36  C   3  S   0.041058   0.000000   0.000000   0.000000   0.219059
   37  C   3  X   0.000000   0.089837   0.000000   0.000000   0.000000
   38  C   3  Y  -0.072467   0.000000   0.000000   0.000000   0.000000
   39  C   3  Z   0.000000   0.000000   0.000000   0.089837   0.000000
   40  C   3  S   0.179668   0.000000   0.000000   0.000000   0.184261
   41  C   3  X   0.000000   0.133600   0.000000   0.000000   0.000000
   42  C   3  Y  -0.365750   0.000000   0.000000   0.000000   0.000000
   43  C   3  Z   0.000000   0.000000   0.000000   0.133600   0.000000
   44  C   3 XX   0.009094   0.000000   0.000000   0.000000   0.079103
   45  C   3 YY   0.074599   0.000000   0.000000   0.000000   0.079103
   46  C   3 ZZ   0.027282   0.000000   0.000000   0.000000   0.079103
   47  C   3 XY   0.000000  -0.169232   0.000000   0.000000   0.000000
   48  C   3 XZ   0.000000   0.000000   0.027282   0.000000   0.000000
   49  C   3 YZ   0.000000   0.000000   0.000000  -0.169232   0.000000
   50  H   4  S   0.000193   0.000049   0.000154   0.000099   0.000000
   51  H   4  S   0.025832   0.003860   0.012034   0.007780   0.001806
   52  H   5  S   0.000193  -0.000049  -0.000154   0.000099   0.000000
   53  H   5  S   0.025832  -0.003860  -0.012034   0.007780   0.001806
   54  H   6  S   0.165622  -0.210321  -0.176720   0.089735   0.000014
   55  H   6  S   0.366264  -0.048741  -0.040954   0.020796   0.010314
   56  H   7  S   0.165622   0.210321   0.176720   0.089735   0.000014
   57  H   7  S   0.366264   0.048741   0.040954   0.020796   0.010314
   58  H   8  S   0.000999   0.004987  -0.000934  -0.002128   0.034701
   59  H   8  S   0.054671   0.032630  -0.006113  -0.013922   0.093692
   60  H   9  S   0.000999  -0.004987   0.000934  -0.002128   0.034701
   61  H   9  S   0.054671  -0.032630   0.006113  -0.013922   0.093692

                     36         37         38         39         40

   36  C   3  S   1.000000
   37  C   3  X   0.000000   1.000000
   38  C   3  Y   0.000000   0.000000   1.000000
   39  C   3  Z   0.000000   0.000000   0.000000   1.000000
   40  C   3  S   0.812273   0.000000   0.000000   0.000000   1.000000
   41  C   3  X   0.000000   0.569754   0.000000   0.000000   0.000000
   42  C   3  Y   0.000000   0.000000   0.569754   0.000000   0.000000
   43  C   3  Z   0.000000   0.000000   0.000000   0.569754   0.000000
   44  C   3 XX   0.710235   0.000000   0.000000   0.000000   0.629936
   45  C   3 YY   0.710235   0.000000   0.000000   0.000000   0.629936
   46  C   3 ZZ   0.710235   0.000000   0.000000   0.000000   0.629936
   47  C   3 XY   0.000000   0.000000   0.000000   0.000000   0.000000
   48  C   3 XZ   0.000000   0.000000   0.000000   0.000000   0.000000
   49  C   3 YZ   0.000000   0.000000   0.000000   0.000000   0.000000
   50  H   4  S   0.000158   0.000190  -0.000123   0.000384   0.012284
   51  H   4  S   0.021436   0.012223  -0.007903   0.024634   0.087736
   52  H   5  S   0.000158  -0.000190  -0.000123   0.000384   0.012284
   53  H   5  S   0.021436  -0.012223  -0.007903   0.024634   0.087736
   54  H   6  S   0.004263   0.003827  -0.008715  -0.001633   0.055813
   55  H   6  S   0.085013   0.036717  -0.083619  -0.015665   0.220861
   56  H   7  S   0.004263  -0.003827  -0.008715  -0.001633   0.055813
   57  H   7  S   0.085013  -0.036717  -0.083619  -0.015665   0.220861
   58  H   8  S   0.282141   0.314840   0.159870  -0.134329   0.382361
   59  H   8  S   0.482158   0.221654   0.112552  -0.094570   0.710533
   60  H   9  S   0.282141  -0.314840   0.159870  -0.134329   0.382361
   61  H   9  S   0.482158  -0.221654   0.112552  -0.094570   0.710533

                     41         42         43         44         45

   41  C   3  X   1.000000
   42  C   3  Y   0.000000   1.000000
   43  C   3  Z   0.000000   0.000000   1.000000
   44  C   3 XX   0.000000   0.000000   0.000000   1.000000
   45  C   3 YY   0.000000   0.000000   0.000000   0.333333   1.000000
   46  C   3 ZZ   0.000000   0.000000   0.000000   0.333333   0.333333
   47  C   3 XY   0.000000   0.000000   0.000000   0.000000   0.000000
   48  C   3 XZ   0.000000   0.000000   0.000000   0.000000   0.000000
   49  C   3 YZ   0.000000   0.000000   0.000000   0.000000   0.000000
   50  H   4  S   0.018735  -0.012113   0.037758   0.000058   0.000033
   51  H   4  S   0.081740  -0.052849   0.164738   0.015277   0.013271
   52  H   5  S  -0.018735  -0.012113   0.037758   0.000058   0.000033
   53  H   5  S  -0.081740  -0.052849   0.164738   0.015277   0.013271
   54  H   6  S   0.062409  -0.142130  -0.026627   0.002034   0.007327
   55  H   6  S   0.150358  -0.342427  -0.064151   0.061437   0.096070
   56  H   7  S  -0.062409  -0.142130  -0.026627   0.002034   0.007327
   57  H   7  S  -0.150358  -0.342427  -0.064151   0.061437   0.096070
   58  H   8  S   0.429960   0.218326  -0.183446   0.361227   0.183750
   59  H   8  S   0.483718   0.245623  -0.206382   0.411594   0.370465
   60  H   9  S  -0.429960   0.218326  -0.183446   0.361227   0.183750
   61  H   9  S  -0.483718   0.245623  -0.206382   0.411594   0.370465

                     46         47         48         49         50

   46  C   3 ZZ   1.000000
   47  C   3 XY   0.000000   1.000000
   48  C   3 XZ   0.000000   0.000000   1.000000
   49  C   3 YZ   0.000000   0.000000   0.000000   1.000000
   50  H   4  S   0.000193  -0.000049   0.000154  -0.000099   1.000000
   51  H   4  S   0.025832  -0.003860   0.012034  -0.007780   0.658292
   52  H   5  S   0.000193   0.000049  -0.000154  -0.000099   0.000675
   53  H   5  S   0.025832   0.003860  -0.012034  -0.007780   0.039197
   54  H   6  S   0.000999  -0.004987  -0.000934   0.002128   0.000009
   55  H   6  S   0.054671  -0.032630  -0.006113   0.013922   0.006675
   56  H   7  S   0.000999   0.004987   0.000934   0.002128   0.000000
   57  H   7  S   0.054671   0.032630   0.006113   0.013922   0.000865
   58  H   8  S   0.165622   0.210321  -0.176720  -0.089735   0.000009
   59  H   8  S   0.366264   0.048741  -0.040954  -0.020796   0.006675
   60  H   9  S   0.165622  -0.210321   0.176720  -0.089735   0.000000
   61  H   9  S   0.366264  -0.048741   0.040954  -0.020796   0.000865

                     51         52         53         54         55

   51  H   4  S   1.000000
   52  H   5  S   0.039197   1.000000
   53  H   5  S   0.176075   0.658292   1.000000
   54  H   6  S   0.006675   0.000000   0.000865   1.000000
   55  H   6  S   0.058855   0.000865   0.016542   0.658292   1.000000
   56  H   7  S   0.000865   0.000009   0.006675   0.017343   0.145568
   57  H   7  S   0.016542   0.006675   0.058855   0.145568   0.395582
   58  H   8  S   0.006675   0.000000   0.000865   0.000528   0.035474
   59  H   8  S   0.058855   0.000865   0.016542   0.035474   0.165543
   60  H   9  S   0.000865   0.000009   0.006675   0.000013   0.007929
   61  H   9  S   0.016542   0.006675   0.058855   0.007929   0.065486

                     56         57         58         59         60

   56  H   7  S   1.000000
   57  H   7  S   0.658292   1.000000
   58  H   8  S   0.000013   0.007929   1.000000
   59  H   8  S   0.007929   0.065486   0.658292   1.000000
   60  H   9  S   0.000528   0.035474   0.017343   0.145568   1.000000
   61  H   9  S   0.035474   0.165543   0.145568   0.395582   0.658292

                     61

   61  H   9  S   1.000000
BARE NUCLEUS HAMILTONIAN INTEGRALS (H=T+V)

                      1          2          3          4          5

    1  SI  1  S-102.890253
    2  SI  1  S -24.922378 -32.259342
    3  SI  1  X   0.000000   0.000000 -27.220078
    4  SI  1  Y   0.000000   0.000000   0.000000 -27.218112
    5  SI  1  Z   0.035596   0.273921   0.000000   0.000000 -27.264437
    6  SI  1  S  -0.789400  -6.757542   0.000000   0.000000   0.154683
    7  SI  1  X   0.000000   0.000000  -5.779438   0.000000   0.000000
    8  SI  1  Y   0.000000   0.000000   0.000000  -5.777684   0.000000
    9  SI  1  Z   0.001419   0.124975   0.000000   0.000000  -5.819105
   10  SI  1  S  -2.805470  -6.150984   0.000000   0.000000   0.106817
   11  SI  1  X   0.000000   0.000000  -1.341133   0.000000   0.000000
   12  SI  1  Y   0.000000   0.000000   0.000000  -1.340620   0.000000
   13  SI  1  Z   0.000263   0.031659   0.000000   0.000000  -1.352789
   14  SI  1 XX  -0.181195  -3.003116   0.000000   0.000000   0.044947
   15  SI  1 YY  -0.181194  -3.002131   0.000000   0.000000   0.050963
   16  SI  1 ZZ  -0.181223  -3.025349   0.000000   0.000000   0.155802
   17  SI  1 XY   0.000000   0.000000   0.000000   0.000000   0.000000
   18  SI  1 XZ   0.000000   0.000000   0.077851   0.000000   0.000000
   19  SI  1 YZ   0.000000   0.000000   0.000000   0.088270   0.000000
   20  C   2  S   0.000000  -0.000103   0.000000   0.000150   0.000316
   21  C   2  S  -0.021512  -0.137027   0.000000   0.076449   0.164150
   22  C   2  X   0.000000   0.000000  -0.045062   0.000000   0.000000
   23  C   2  Y  -0.030284  -0.149356   0.000000   0.037835   0.178340
   24  C   2  Z  -0.063655  -0.311801   0.000000   0.173331   0.326303
   25  C   2  S  -0.681817  -1.636906   0.000000   0.323216   0.712663
   26  C   2  X   0.000000   0.000000  -0.523643   0.000000   0.000000
   27  C   2  Y  -0.834470  -1.863059   0.000000  -0.158936   0.805421
   28  C   2  Z  -1.753983  -3.900545   0.000000   0.764436   1.155578
   29  C   2 XX  -0.000053  -0.012307   0.000000   0.009275   0.019805
   30  C   2 YY  -0.005101  -0.063471   0.000000   0.014691   0.100321
   31  C   2 ZZ  -0.022355  -0.234366   0.000000   0.172434   0.300928
   32  C   2 XY   0.000000   0.000000  -0.027744   0.000000   0.000000
   33  C   2 XZ   0.000000   0.000000  -0.057784   0.000000   0.000000
   34  C   2 YZ  -0.018378  -0.184417   0.000000   0.077545   0.261686
   35  C   3  S   0.000000  -0.000103   0.000000  -0.000150   0.000316
   36  C   3  S  -0.021512  -0.137027   0.000000  -0.076449   0.164150
   37  C   3  X   0.000000   0.000000  -0.045062   0.000000   0.000000
   38  C   3  Y   0.030284   0.149356   0.000000   0.037835  -0.178340
   39  C   3  Z  -0.063655  -0.311801   0.000000  -0.173331   0.326303
   40  C   3  S  -0.681817  -1.636906   0.000000  -0.323216   0.712663
   41  C   3  X   0.000000   0.000000  -0.523643   0.000000   0.000000
   42  C   3  Y   0.834470   1.863059   0.000000  -0.158936  -0.805421
   43  C   3  Z  -1.753983  -3.900545   0.000000  -0.764436   1.155578
   44  C   3 XX  -0.000053  -0.012307   0.000000  -0.009275   0.019805
   45  C   3 YY  -0.005101  -0.063471   0.000000  -0.014691   0.100321
   46  C   3 ZZ  -0.022355  -0.234366   0.000000  -0.172434   0.300928
   47  C   3 XY   0.000000   0.000000   0.027744   0.000000   0.000000
   48  C   3 XZ   0.000000   0.000000  -0.057784   0.000000   0.000000
   49  C   3 YZ   0.018378   0.184417   0.000000   0.077545  -0.261686
   50  H   4  S  -0.092743  -0.416765  -0.402693   0.000000  -0.259875
   51  H   4  S  -1.480828  -3.315804  -0.964228   0.000000  -0.582489
   52  H   5  S  -0.092743  -0.416765   0.402693   0.000000  -0.259875
   53  H   5  S  -1.480828  -3.315804   0.964228   0.000000  -0.582489
   54  H   6  S  -0.000005  -0.000410  -0.000303   0.000426   0.000712
   55  H   6  S  -0.118254  -0.319873  -0.069070   0.096390   0.165175
   56  H   7  S  -0.000005  -0.000410   0.000303   0.000426   0.000712
   57  H   7  S  -0.118254  -0.319873   0.069070   0.096390   0.165175
   58  H   8  S  -0.000005  -0.000410  -0.000303  -0.000426   0.000712
   59  H   8  S  -0.118254  -0.319873  -0.069070  -0.096390   0.165175
   60  H   9  S  -0.000005  -0.000410   0.000303  -0.000426   0.000712
   61  H   9  S  -0.118254  -0.319873   0.069070  -0.096390   0.165175

                      6          7          8          9         10

    6  SI  1  S -13.057118
    7  SI  1  X   0.000000 -11.814453
    8  SI  1  Y   0.000000   0.000000 -11.820231
    9  SI  1  Z   1.001814   0.000000   0.000000 -12.430556
   10  SI  1  S -10.309775   0.000000   0.000000   1.037878 -10.572126
   11  SI  1  X   0.000000  -6.661024   0.000000   0.000000   0.000000
   12  SI  1  Y   0.000000   0.000000  -6.695727   0.000000   0.000000
   13  SI  1  Z   0.709870   0.000000   0.000000  -7.243928   1.236073
   14  SI  1 XX  -8.991418   0.000000   0.000000   0.326252  -7.065752
   15  SI  1 YY  -8.984921   0.000000   0.000000   0.469644  -7.069309
   16  SI  1 ZZ  -9.384867   0.000000   0.000000   1.490557  -7.467207
   17  SI  1 XY   0.000000   0.000000   0.000000   0.000000   0.000000
   18  SI  1 XZ   0.000000   0.565086   0.000000   0.000000   0.000000
   19  SI  1 YZ   0.000000   0.000000   0.813448   0.000000   0.000000
   20  C   2  S  -0.511322   0.000000   0.509787   1.073865  -1.060413
   21  C   2  S  -2.142878   0.000000   1.620708   3.563391  -3.252791
   22  C   2  X   0.000000  -1.060534   0.000000   0.000000   0.000000
   23  C   2  Y  -1.094707   0.000000  -0.200880   1.966051  -0.905966
   24  C   2  Z  -2.078145   0.000000   1.718159   2.671043  -1.522246
   25  C   2  S  -4.409517   0.000000   2.073877   4.933073  -5.615516
   26  C   2  X   0.000000  -3.179258   0.000000   0.000000   0.000000
   27  C   2  Y  -3.220307   0.000000  -1.772427   3.698923  -2.813425
   28  C   2  Z  -6.149567   0.000000   2.991810   3.662305  -4.767040
   29  C   2 XX  -1.228152   0.000000   1.007997   2.169219  -2.309063
   30  C   2 YY  -1.579138   0.000000   0.679617   2.884021  -2.517622
   31  C   2 ZZ  -2.394842   0.000000   2.129848   3.392115  -2.766797
   32  C   2 XY   0.000000  -0.530237   0.000000   0.000000   0.000000
   33  C   2 XZ   0.000000  -1.027316   0.000000   0.000000   0.000000
   34  C   2 YZ  -1.047429   0.000000  -0.047454   1.624791  -0.463839
   35  C   3  S  -0.511322   0.000000  -0.509787   1.073865  -1.060413
   36  C   3  S  -2.142878   0.000000  -1.620708   3.563391  -3.252791
   37  C   3  X   0.000000  -1.060534   0.000000   0.000000   0.000000
   38  C   3  Y   1.094707   0.000000  -0.200880  -1.966051   0.905966
   39  C   3  Z  -2.078145   0.000000  -1.718159   2.671043  -1.522246
   40  C   3  S  -4.409517   0.000000  -2.073877   4.933073  -5.615516
   41  C   3  X   0.000000  -3.179258   0.000000   0.000000   0.000000
   42  C   3  Y   3.220307   0.000000  -1.772427  -3.698923   2.813425
   43  C   3  Z  -6.149567   0.000000  -2.991810   3.662305  -4.767040
   44  C   3 XX  -1.228152   0.000000  -1.007997   2.169219  -2.309063
   45  C   3 YY  -1.579138   0.000000  -0.679617   2.884021  -2.517622
   46  C   3 ZZ  -2.394842   0.000000  -2.129848   3.392115  -2.766797
   47  C   3 XY   0.000000   0.530237   0.000000   0.000000   0.000000
   48  C   3 XZ   0.000000  -1.027316   0.000000   0.000000   0.000000
   49  C   3 YZ   1.047429   0.000000  -0.047454  -1.624791   0.463839
   50  H   4  S  -2.398819  -3.205263   0.000000  -2.067025  -2.466253
   51  H   4  S  -5.845381  -4.230762   0.000000  -2.468869  -5.918266
   52  H   5  S  -2.398819   3.205263   0.000000  -2.067025  -2.466253
   53  H   5  S  -5.845381   4.230762   0.000000  -2.468869  -5.918266
   54  H   6  S  -0.227559  -0.181861   0.269255   0.456517  -0.922819
   55  H   6  S  -1.555572  -0.731052   1.083508   1.986694  -2.832730
   56  H   7  S  -0.227559   0.181861   0.269255   0.456517  -0.922819
   57  H   7  S  -1.555572   0.731052   1.083508   1.986694  -2.832730
   58  H   8  S  -0.227559  -0.181861  -0.269255   0.456517  -0.922819
   59  H   8  S  -1.555572  -0.731052  -1.083508   1.986694  -2.832730
   60  H   9  S  -0.227559   0.181861  -0.269255   0.456517  -0.922819
   61  H   9  S  -1.555572   0.731052  -1.083508   1.986694  -2.832730

                     11         12         13         14         15

   11  SI  1  X  -7.724800
   12  SI  1  Y   0.000000  -7.837883
   13  SI  1  Z   0.000000   0.000000  -8.705799
   14  SI  1 XX   0.000000   0.000000   0.199367 -11.367890
   15  SI  1 YY   0.000000   0.000000   0.310970  -4.120784 -11.324964
   16  SI  1 ZZ   0.000000   0.000000   1.005203  -4.252031  -4.274611
   17  SI  1 XY   0.000000   0.000000   0.000000   0.000000   0.000000
   18  SI  1 XZ   0.345315   0.000000   0.000000   0.000000   0.000000
   19  SI  1 YZ   0.000000   0.538617   0.000000   0.000000   0.000000
   20  C   2  S   0.000000   0.839333   1.767795  -0.010110  -0.179323
   21  C   2  S   0.000000   2.157063   4.726300  -0.461254  -1.036447
   22  C   2  X  -1.431634   0.000000   0.000000   0.000000   0.000000
   23  C   2  Y   0.000000  -0.890689   1.295515  -0.302637   0.020254
   24  C   2  Z   0.000000   0.987028   0.721087  -0.608216  -1.467638
   25  C   2  S   0.000000   2.651886   6.325551  -2.113889  -2.596724
   26  C   2  X  -3.960364   0.000000   0.000000   0.000000   0.000000
   27  C   2  Y   0.000000  -3.000155   2.963925  -1.879058  -0.958513
   28  C   2  Z   0.000000   2.038061   0.677521  -3.815488  -4.584355
   29  C   2 XX   0.000000   1.646631   3.530866  -0.407117  -0.479841
   30  C   2 YY   0.000000   1.326903   3.833044  -0.254638  -0.405990
   31  C   2 ZZ   0.000000   1.929609   3.453392  -0.555255  -1.690100
   32  C   2 XY  -0.337581   0.000000   0.000000   0.000000   0.000000
   33  C   2 XZ  -0.589061   0.000000   0.000000   0.000000   0.000000
   34  C   2 YZ   0.000000  -0.304221   0.299630  -0.345298   0.064403
   35  C   3  S   0.000000  -0.839333   1.767795  -0.010110  -0.179323
   36  C   3  S   0.000000  -2.157063   4.726300  -0.461254  -1.036447
   37  C   3  X  -1.431634   0.000000   0.000000   0.000000   0.000000
   38  C   3  Y   0.000000  -0.890689  -1.295515   0.302637  -0.020254
   39  C   3  Z   0.000000  -0.987028   0.721087  -0.608216  -1.467638
   40  C   3  S   0.000000  -2.651886   6.325551  -2.113889  -2.596724
   41  C   3  X  -3.960364   0.000000   0.000000   0.000000   0.000000
   42  C   3  Y   0.000000  -3.000155  -2.963925   1.879058   0.958513
   43  C   3  Z   0.000000  -2.038061   0.677521  -3.815488  -4.584355
   44  C   3 XX   0.000000  -1.646631   3.530866  -0.407117  -0.479841
   45  C   3 YY   0.000000  -1.326903   3.833044  -0.254638  -0.405990
   46  C   3 ZZ   0.000000  -1.929609   3.453392  -0.555255  -1.690100
   47  C   3 XY   0.337581   0.000000   0.000000   0.000000   0.000000
   48  C   3 XZ  -0.589061   0.000000   0.000000   0.000000   0.000000
   49  C   3 YZ   0.000000  -0.304221  -0.299630   0.345298  -0.064403
   50  H   4  S  -2.576146   0.000000  -1.663710  -3.180267  -0.645662
   51  H   4  S  -4.090362   0.000000  -2.416045  -4.902516  -3.419048
   52  H   5  S   2.576146   0.000000  -1.663710  -3.180267  -0.645662
   53  H   5  S   4.090362   0.000000  -2.416045  -4.902516  -3.419048
   54  H   6  S  -0.692190   1.006793   1.695127  -0.046269  -0.081418
   55  H   6  S  -1.429443   2.135167   3.874514  -0.730183  -0.893291
   56  H   7  S   0.692190   1.006793   1.695127  -0.046269  -0.081418
   57  H   7  S   1.429443   2.135167   3.874514  -0.730183  -0.893291
   58  H   8  S  -0.692190  -1.006793   1.695127  -0.046269  -0.081418
   59  H   8  S  -1.429443  -2.135167   3.874514  -0.730183  -0.893291
   60  H   9  S   0.692190  -1.006793   1.695127  -0.046269  -0.081418
   61  H   9  S   1.429443  -2.135167   3.874514  -0.730183  -0.893291

                     16         17         18         19         20

   16  SI  1 ZZ -12.154440
   17  SI  1 XY   0.000000 -10.782351
   18  SI  1 XZ   0.000000   0.000000 -11.176094
   19  SI  1 YZ   0.000000   0.000000   0.000000 -11.243832
   20  C   2  S  -0.761109   0.000000   0.000000  -0.617396 -25.771990
   21  C   2  S  -3.196246   0.000000   0.000000  -2.140262  -5.374970
   22  C   2  X   0.000000   0.645739   1.405751   0.000000   0.000000
   23  C   2  Y  -2.363025   0.000000   0.000000  -0.161960  -0.101692
   24  C   2  Z  -3.007492   0.000000   0.000000  -2.548036  -0.085788
   25  C   2  S  -4.641703   0.000000   0.000000  -1.751713  -4.605112
   26  C   2  X   0.000000   1.137225   2.623185   0.000000   0.000000
   27  C   2  Y  -4.054229   0.000000   0.000000   1.299114  -0.017084
   28  C   2  Z  -4.788251   0.000000   0.000000  -1.772276  -0.014412
   29  C   2 XX  -1.662795   0.000000   0.000000  -1.211560  -1.965449
   30  C   2 YY  -2.777423   0.000000   0.000000  -0.758895  -1.969946
   31  C   2 ZZ  -3.315686   0.000000   0.000000  -3.107722  -1.968949
   32  C   2 XY   0.000000   0.087843   1.031064   0.000000   0.000000
   33  C   2 XZ   0.000000   0.950803   1.666747   0.000000   0.000000
   34  C   2 YZ  -2.417368   0.000000   0.000000  -0.429887  -0.007190
   35  C   3  S  -0.761109   0.000000   0.000000   0.617396  -0.000005
   36  C   3  S  -3.196246   0.000000   0.000000   2.140262  -0.147010
   37  C   3  X   0.000000  -0.645739   1.405751   0.000000   0.000000
   38  C   3  Y   2.363025   0.000000   0.000000  -0.161960   0.373138
   39  C   3  Z  -3.007492   0.000000   0.000000   2.548036  -0.000625
   40  C   3  S  -4.641703   0.000000   0.000000   1.751713  -1.070995
   41  C   3  X   0.000000  -1.137225   2.623185   0.000000   0.000000
   42  C   3  Y   4.054229   0.000000   0.000000   1.299114   2.537899
   43  C   3  Z  -4.788251   0.000000   0.000000   1.772276  -0.003617
   44  C   3 XX  -1.662795   0.000000   0.000000   1.211560  -0.006162
   45  C   3 YY  -2.777423   0.000000   0.000000   0.758895  -0.338969
   46  C   3 ZZ  -3.315686   0.000000   0.000000   3.107722  -0.006185
   47  C   3 XY   0.000000   0.087843  -1.031064   0.000000   0.000000
   48  C   3 XZ   0.000000  -0.950803   1.666747   0.000000   0.000000
   49  C   3 YZ   2.417368   0.000000   0.000000  -0.429887   0.001043
   50  H   4  S  -1.701720   0.000000  -2.828231   0.000000  -0.000001
   51  H   4  S  -4.012128   0.000000  -1.499748   0.000000  -0.045781
   52  H   5  S  -1.701720   0.000000   2.828231   0.000000  -0.000001
   53  H   5  S  -4.012128   0.000000   1.499748   0.000000  -0.045781
   54  H   6  S  -0.205711   0.076183   0.128484  -0.192860  -0.864036
   55  H   6  S  -1.576429   0.331511   0.591179  -0.892664  -2.338076
   56  H   7  S  -0.205711  -0.076183  -0.128484  -0.192860  -0.864036
   57  H   7  S  -1.576429  -0.331511  -0.591179  -0.892664  -2.338076
   58  H   8  S  -0.205711  -0.076183   0.128484   0.192860  -0.000382
   59  H   8  S  -1.576429  -0.331511   0.591179   0.892664  -0.259845
   60  H   9  S  -0.205711   0.076183  -0.128484   0.192860  -0.000382
   61  H   9  S  -1.576429   0.331511  -0.591179   0.892664  -0.259845

                     21         22         23         24         25

   21  C   2  S -12.612552
   22  C   2  X   0.000000 -11.776160
   23  C   2  Y  -0.738349   0.000000 -11.961156
   24  C   2  Z  -0.622928   0.000000  -0.158650 -11.923609
   25  C   2  S -10.172651   0.000000  -0.755922  -0.639128 -11.369375
   26  C   2  X   0.000000  -6.303025   0.000000   0.000000   0.000000
   27  C   2  Y  -0.548957   0.000000  -6.529968  -0.165537  -1.297777
   28  C   2  Z  -0.464325   0.000000  -0.165537  -6.496327  -1.137774
   29  C   2 XX  -8.513028   0.000000  -0.274143  -0.235576  -7.376568
   30  C   2 YY  -8.663096   0.000000  -1.097306  -0.291353  -7.565747
   31  C   2 ZZ  -8.631496   0.000000  -0.369235  -0.941587  -7.530365
   32  C   2 XY   0.000000  -0.474829   0.000000   0.000000   0.000000
   33  C   2 XZ   0.000000  -0.408029   0.000000   0.000000   0.000000
   34  C   2 YZ  -0.229281   0.000000  -0.504639  -0.639534  -0.264784
   35  C   3  S  -0.147010   0.000000  -0.373138  -0.000625  -1.070995
   36  C   3  S  -1.488964   0.000000  -2.287276  -0.071473  -3.447979
   37  C   3  X   0.000000  -0.698205   0.000000   0.000000   0.000000
   38  C   3  Y   2.287276   0.000000   3.113657   0.110332   2.873132
   39  C   3  Z  -0.071473   0.000000  -0.110332  -0.726916  -0.253318
   40  C   3  S  -3.447979   0.000000  -2.873132  -0.253318  -5.721360
   41  C   3  X   0.000000  -2.011621   0.000000   0.000000   0.000000
   42  C   3  Y   6.230785   0.000000   3.200384   0.446292   6.954324
   43  C   3  Z  -0.193749   0.000000  -0.178139  -2.122825  -0.719029
   44  C   3 XX  -0.576754   0.000000  -0.988301  -0.017819  -2.204406
   45  C   3 YY  -2.687667   0.000000  -3.789212  -0.110897  -3.621175
   46  C   3 ZZ  -0.595333   0.000000  -1.019226  -0.065987  -2.284838
   47  C   3 XY   0.000000   1.125898   0.000000   0.000000   0.000000
   48  C   3 XZ   0.000000  -0.030864   0.000000   0.000000   0.000000
   49  C   3 YZ   0.119465   0.000000   0.179645   1.167157   0.251423
   50  H   4  S  -0.002884  -0.003085  -0.002333  -0.006870  -0.149439
   51  H   4  S  -0.297193  -0.148951  -0.129937  -0.344110  -1.107795
   52  H   5  S  -0.002884   0.003085  -0.002333  -0.006870  -0.149439
   53  H   5  S  -0.297193   0.148951  -0.129937  -0.344110  -1.107795
   54  H   6  S  -3.213957  -3.336950   1.602480   1.346135  -3.817482
   55  H   6  S  -5.797589  -2.392014   0.843637   0.708518  -7.209392
   56  H   7  S  -3.213957   3.336950   1.602480   1.346135  -3.817482
   57  H   7  S  -5.797589   2.392014   0.843637   0.708518  -7.209392
   58  H   8  S  -0.062579  -0.050111  -0.124805   0.019892  -0.619667
   59  H   8  S  -1.112180  -0.423784  -1.100675   0.108220  -2.500341
   60  H   9  S  -0.062579   0.050111  -0.124805   0.019892  -0.619667
   61  H   9  S  -1.112180   0.423784  -1.100675   0.108220  -2.500341

                     26         27         28         29         30

   26  C   2  X  -9.094860
   27  C   2  Y   0.000000  -9.938378
   28  C   2  Z   0.000000  -0.524189  -9.970734
   29  C   2 XX   0.000000  -0.210886  -0.183210 -10.461891
   30  C   2 YY   0.000000  -0.932220  -0.243393  -4.247257 -10.803381
   31  C   2 ZZ   0.000000  -0.317099  -0.806847  -4.234180  -4.291510
   32  C   2 XY  -0.365266   0.000000   0.000000   0.000000   0.000000
   33  C   2 XZ  -0.317330   0.000000   0.000000   0.000000   0.000000
   34  C   2 YZ   0.000000  -0.421570  -0.549231  -0.101886  -0.233833
   35  C   3  S   0.000000  -2.537899  -0.003617  -0.006162  -0.338969
   36  C   3  S   0.000000  -6.230785  -0.193749  -0.576754  -2.687667
   37  C   3  X  -2.011621   0.000000   0.000000   0.000000   0.000000
   38  C   3  Y   0.000000   3.200384   0.178139   0.988301   3.789212
   39  C   3  Z   0.000000  -0.446292  -2.122825  -0.017819  -0.110897
   40  C   3  S   0.000000  -6.954324  -0.719029  -2.204406  -3.621175
   41  C   3  X  -4.538107   0.000000   0.000000   0.000000   0.000000
   42  C   3  Y   0.000000   3.195069   0.886209   4.379604   5.158727
   43  C   3  Z   0.000000  -0.886209  -5.201844  -0.070650  -0.156024
   44  C   3 XX   0.000000  -4.379604  -0.070650  -0.361756  -1.055994
   45  C   3 YY   0.000000  -5.158727  -0.156024  -1.055994  -4.685073
   46  C   3 ZZ   0.000000  -4.516078  -0.289680  -0.142970  -1.084282
   47  C   3 XY   1.567240   0.000000   0.000000   0.000000   0.000000
   48  C   3 XZ  -0.122370   0.000000   0.000000   0.000000   0.000000
   49  C   3 YZ   0.000000   0.349520   1.674266   0.028978   0.203948
   50  H   4  S  -0.202944  -0.147962  -0.441441  -0.001033  -0.000690
   51  H   4  S  -0.814856  -0.780257  -2.064478  -0.192788  -0.187059
   52  H   5  S   0.202944  -0.147962  -0.441441  -0.001033  -0.000690
   53  H   5  S   0.814856  -0.780257  -2.064478  -0.192788  -0.187059
   54  H   6  S  -3.865834   1.866599   1.567328  -3.789742  -2.014171
   55  H   6  S  -4.041961   1.421172   1.183688  -4.665872  -4.228762
   56  H   7  S   3.865834   1.866599   1.567328  -3.789742  -2.014171
   57  H   7  S   4.041961   1.421172   1.183688  -4.665872  -4.228762
   58  H   8  S  -0.617810  -1.523221   0.248642  -0.029001  -0.112444
   59  H   8  S  -1.382065  -3.772022   0.346220  -0.746049  -1.271720
   60  H   9  S   0.617810  -1.523221   0.248642  -0.029001  -0.112444
   61  H   9  S   1.382065  -3.772022   0.346220  -0.746049  -1.271720

                     31         32         33         34         35

   31  C   2 ZZ -10.732690
   32  C   2 XY   0.000000  -9.541772
   33  C   2 XZ   0.000000  -0.176472  -9.502540
   34  C   2 YZ  -0.271980   0.000000   0.000000  -9.674531
   35  C   3  S  -0.006185   0.000000   0.000000  -0.001043 -25.771990
   36  C   3  S  -0.595333   0.000000   0.000000  -0.119465  -5.374970
   37  C   3  X   0.000000  -1.125898  -0.030864   0.000000   0.000000
   38  C   3  Y   1.019226   0.000000   0.000000   0.179645   0.101692
   39  C   3  Z  -0.065987   0.000000   0.000000  -1.167157  -0.085788
   40  C   3  S  -2.284838   0.000000   0.000000  -0.251423  -4.605112
   41  C   3  X   0.000000  -1.567240  -0.122370   0.000000   0.000000
   42  C   3  Y   4.516078   0.000000   0.000000   0.349520   0.017084
   43  C   3  Z  -0.289680   0.000000   0.000000  -1.674266  -0.014412
   44  C   3 XX  -0.142970   0.000000   0.000000  -0.028978  -1.965449
   45  C   3 YY  -1.084282   0.000000   0.000000  -0.203948  -1.969946
   46  C   3 ZZ  -0.383824   0.000000   0.000000  -0.103867  -1.968949
   47  C   3 XY   0.000000   2.028027   0.050192   0.000000   0.000000
   48  C   3 XZ   0.000000  -0.050192  -0.341608   0.000000   0.000000
   49  C   3 YZ   0.103867   0.000000   0.000000   2.096389   0.007190
   50  H   4  S  -0.003794  -0.000922  -0.002761  -0.002057  -0.000001
   51  H   4  S  -0.359789  -0.054906  -0.149141  -0.134771  -0.045781
   52  H   5  S  -0.003794   0.000922   0.002761  -0.002057  -0.000001
   53  H   5  S  -0.359789   0.054906   0.149141  -0.134771  -0.045781
   54  H   6  S  -1.854806   1.929202   1.619797  -0.790704  -0.000382
   55  H   6  S  -4.192179   0.367674   0.306293  -0.207923  -0.259845
   56  H   7  S  -1.854806  -1.929202  -1.619797  -0.790704  -0.000382
   57  H   7  S  -4.192179  -0.367674  -0.306293  -0.207923  -0.259845
   58  H   8  S  -0.015009  -0.069663   0.011520   0.027550  -0.864036
   59  H   8  S  -0.681797  -0.383043   0.042364   0.085070  -2.338076
   60  H   9  S  -0.015009   0.069663  -0.011520   0.027550  -0.864036
   61  H   9  S  -0.681797   0.383043  -0.042364   0.085070  -2.338076

                     36         37         38         39         40

   36  C   3  S -12.612552
   37  C   3  X   0.000000 -11.776160
   38  C   3  Y   0.738349   0.000000 -11.961156
   39  C   3  Z  -0.622928   0.000000   0.158650 -11.923609
   40  C   3  S -10.172651   0.000000   0.755922  -0.639128 -11.369375
   41  C   3  X   0.000000  -6.303025   0.000000   0.000000   0.000000
   42  C   3  Y   0.548957   0.000000  -6.529968   0.165537   1.297777
   43  C   3  Z  -0.464325   0.000000   0.165537  -6.496327  -1.137774
   44  C   3 XX  -8.513028   0.000000   0.274143  -0.235576  -7.376568
   45  C   3 YY  -8.663096   0.000000   1.097306  -0.291353  -7.565747
   46  C   3 ZZ  -8.631496   0.000000   0.369235  -0.941587  -7.530365
   47  C   3 XY   0.000000   0.474829   0.000000   0.000000   0.000000
   48  C   3 XZ   0.000000  -0.408029   0.000000   0.000000   0.000000
   49  C   3 YZ   0.229281   0.000000  -0.504639   0.639534   0.264784
   50  H   4  S  -0.002884  -0.003085   0.002333  -0.006870  -0.149439
   51  H   4  S  -0.297193  -0.148951   0.129937  -0.344110  -1.107795
   52  H   5  S  -0.002884   0.003085   0.002333  -0.006870  -0.149439
   53  H   5  S  -0.297193   0.148951   0.129937  -0.344110  -1.107795
   54  H   6  S  -0.062579  -0.050111   0.124805   0.019892  -0.619667
   55  H   6  S  -1.112180  -0.423784   1.100675   0.108220  -2.500341
   56  H   7  S  -0.062579   0.050111   0.124805   0.019892  -0.619667
   57  H   7  S  -1.112180   0.423784   1.100675   0.108220  -2.500341
   58  H   8  S  -3.213957  -3.336950  -1.602480   1.346135  -3.817482
   59  H   8  S  -5.797589  -2.392014  -0.843637   0.708518  -7.209392
   60  H   9  S  -3.213957   3.336950  -1.602480   1.346135  -3.817482
   61  H   9  S  -5.797589   2.392014  -0.843637   0.708518  -7.209392

                     41         42         43         44         45

   41  C   3  X  -9.094860
   42  C   3  Y   0.000000  -9.938378
   43  C   3  Z   0.000000   0.524189  -9.970734
   44  C   3 XX   0.000000   0.210886  -0.183210 -10.461891
   45  C   3 YY   0.000000   0.932220  -0.243393  -4.247257 -10.803381
   46  C   3 ZZ   0.000000   0.317099  -0.806847  -4.234180  -4.291510
   47  C   3 XY   0.365266   0.000000   0.000000   0.000000   0.000000
   48  C   3 XZ  -0.317330   0.000000   0.000000   0.000000   0.000000
   49  C   3 YZ   0.000000  -0.421570   0.549231   0.101886   0.233833
   50  H   4  S  -0.202944   0.147962  -0.441441  -0.001033  -0.000690
   51  H   4  S  -0.814856   0.780257  -2.064478  -0.192788  -0.187059
   52  H   5  S   0.202944   0.147962  -0.441441  -0.001033  -0.000690
   53  H   5  S   0.814856   0.780257  -2.064478  -0.192788  -0.187059
   54  H   6  S  -0.617810   1.523221   0.248642  -0.029001  -0.112444
   55  H   6  S  -1.382065   3.772022   0.346220  -0.746049  -1.271720
   56  H   7  S   0.617810   1.523221   0.248642  -0.029001  -0.112444
   57  H   7  S   1.382065   3.772022   0.346220  -0.746049  -1.271720
   58  H   8  S  -3.865834  -1.866599   1.567328  -3.789742  -2.014171
   59  H   8  S  -4.041961  -1.421172   1.183688  -4.665872  -4.228762
   60  H   9  S   3.865834  -1.866599   1.567328  -3.789742  -2.014171
   61  H   9  S   4.041961  -1.421172   1.183688  -4.665872  -4.228762

                     46         47         48         49         50

   46  C   3 ZZ -10.732690
   47  C   3 XY   0.000000  -9.541772
   48  C   3 XZ   0.000000   0.176472  -9.502540
   49  C   3 YZ   0.271980   0.000000   0.000000  -9.674531
   50  H   4  S  -0.003794   0.000922  -0.002761   0.002057  -8.343880
   51  H   4  S  -0.359789   0.054906  -0.149141   0.134771  -5.804459
   52  H   5  S  -0.003794  -0.000922   0.002761   0.002057  -0.011132
   53  H   5  S  -0.359789  -0.054906   0.149141   0.134771  -0.436367
   54  H   6  S  -0.015009   0.069663   0.011520  -0.027550  -0.000145
   55  H   6  S  -0.681797   0.383043   0.042364  -0.085070  -0.075002
   56  H   7  S  -0.015009  -0.069663  -0.011520  -0.027550  -0.000001
   57  H   7  S  -0.681797  -0.383043  -0.042364  -0.085070  -0.012066
   58  H   8  S  -1.854806  -1.929202   1.619797   0.790704  -0.000145
   59  H   8  S  -4.192179  -0.367674   0.306293   0.207923  -0.075002
   60  H   9  S  -1.854806   1.929202  -1.619797   0.790704  -0.000001
   61  H   9  S  -4.192179   0.367674  -0.306293   0.207923  -0.012066

                     51         52         53         54         55

   51  H   4  S  -8.355136
   52  H   5  S  -0.436367  -8.343880
   53  H   5  S  -1.954500  -5.804459  -8.355136
   54  H   6  S  -0.072858  -0.000001  -0.011671  -8.482934
   55  H   6  S  -0.615343  -0.012066  -0.218591  -5.881503  -8.322065
   56  H   7  S  -0.011671  -0.000145  -0.072858  -0.224581  -1.490062
   57  H   7  S  -0.218591  -0.075002  -0.615343  -1.490062  -3.791840
   58  H   8  S  -0.072858  -0.000001  -0.011671  -0.007214  -0.367269
   59  H   8  S  -0.615343  -0.012066  -0.218591  -0.367269  -1.611221
   60  H   9  S  -0.011671  -0.000145  -0.072858  -0.000245  -0.095643
   61  H   9  S  -0.218591  -0.075002  -0.615343  -0.095643  -0.746017

                     56         57         58         59         60

   56  H   7  S  -8.482934
   57  H   7  S  -5.881503  -8.322065
   58  H   8  S  -0.000245  -0.095643  -8.482934
   59  H   8  S  -0.095643  -0.746017  -5.881503  -8.322065
   60  H   9  S  -0.007214  -0.367269  -0.224581  -1.490062  -8.482934
   61  H   9  S  -0.367269  -1.611221  -1.490062  -3.791840  -5.881503

                     61

   61  H   9  S  -8.322065
KINETIC ENERGY INTEGRALS

                      1          2          3          4          5

    1  SI  1  S  92.847301
    2  SI  1  S  -4.647276   3.804064
    3  SI  1  X   0.000000   0.000000  12.304071
    4  SI  1  Y   0.000000   0.000000   0.000000  12.304071
    5  SI  1  Z   0.000000   0.000000   0.000000   0.000000  12.304071
    6  SI  1  S  -0.246229  -0.325454   0.000000   0.000000   0.000000
    7  SI  1  X   0.000000   0.000000   0.351766   0.000000   0.000000
    8  SI  1  Y   0.000000   0.000000   0.000000   0.351766   0.000000
    9  SI  1  Z   0.000000   0.000000   0.000000   0.000000   0.351766
   10  SI  1  S   0.006030   0.048191   0.000000   0.000000   0.000000
   11  SI  1  X   0.000000   0.000000   0.022611   0.000000   0.000000
   12  SI  1  Y   0.000000   0.000000   0.000000   0.022611   0.000000
   13  SI  1  Z   0.000000   0.000000   0.000000   0.000000   0.022611
   14  SI  1 XX  -0.084268  -0.269664   0.000000   0.000000   0.000000
   15  SI  1 YY  -0.084268  -0.269664   0.000000   0.000000   0.000000
   16  SI  1 ZZ  -0.084268  -0.269664   0.000000   0.000000   0.000000
   17  SI  1 XY   0.000000   0.000000   0.000000   0.000000   0.000000
   18  SI  1 XZ   0.000000   0.000000   0.000000   0.000000   0.000000
   19  SI  1 YZ   0.000000   0.000000   0.000000   0.000000   0.000000
   20  C   2  S   0.000000  -0.000053   0.000000   0.000072   0.000151
   21  C   2  S  -0.001129  -0.015724   0.000000   0.007325   0.015398
   22  C   2  X   0.000000   0.000000  -0.004464   0.000000   0.000000
   23  C   2  Y  -0.001273  -0.012373   0.000000   0.000721   0.010897
   24  C   2  Z  -0.002676  -0.026009   0.000000   0.010897   0.018443
   25  C   2  S  -0.001233  -0.007037   0.000000  -0.002986  -0.006277
   26  C   2  X   0.000000   0.000000   0.004845   0.000000   0.000000
   27  C   2  Y   0.001266   0.013375   0.000000  -0.003854  -0.018287
   28  C   2  Z   0.002660   0.028114   0.000000  -0.018287  -0.033595
   29  C   2 XX  -0.000028  -0.003532   0.000000   0.002469   0.005191
   30  C   2 YY  -0.000484  -0.010172   0.000000   0.001604   0.013330
   31  C   2 ZZ  -0.002044  -0.032873   0.000000   0.019579   0.031197
   32  C   2 XY   0.000000   0.000000  -0.004103   0.000000   0.000000
   33  C   2 XZ   0.000000   0.000000  -0.008624   0.000000   0.000000
   34  C   2 YZ  -0.001661  -0.024177   0.000000   0.005474   0.025532
   35  C   3  S   0.000000  -0.000053   0.000000  -0.000072   0.000151
   36  C   3  S  -0.001129  -0.015724   0.000000  -0.007325   0.015398
   37  C   3  X   0.000000   0.000000  -0.004464   0.000000   0.000000
   38  C   3  Y   0.001273   0.012373   0.000000   0.000721  -0.010897
   39  C   3  Z  -0.002676  -0.026009   0.000000  -0.010897   0.018443
   40  C   3  S  -0.001233  -0.007037   0.000000   0.002986  -0.006277
   41  C   3  X   0.000000   0.000000   0.004845   0.000000   0.000000
   42  C   3  Y  -0.001266  -0.013375   0.000000  -0.003854   0.018287
   43  C   3  Z   0.002660   0.028114   0.000000   0.018287  -0.033595
   44  C   3 XX  -0.000028  -0.003532   0.000000  -0.002469   0.005191
   45  C   3 YY  -0.000484  -0.010172   0.000000  -0.001604   0.013330
   46  C   3 ZZ  -0.002044  -0.032873   0.000000  -0.019579   0.031197
   47  C   3 XY   0.000000   0.000000   0.004103   0.000000   0.000000
   48  C   3 XZ   0.000000   0.000000  -0.008624   0.000000   0.000000
   49  C   3 YZ   0.001661   0.024177   0.000000   0.005474  -0.025532
   50  H   4  S  -0.003785  -0.034362  -0.022683   0.000000  -0.014888
   51  H   4  S   0.001250   0.013563   0.018873   0.000000   0.012387
   52  H   5  S  -0.003785  -0.034362   0.022683   0.000000  -0.014888
   53  H   5  S   0.001250   0.013563  -0.018873   0.000000   0.012387
   54  H   6  S  -0.000001  -0.000132  -0.000094   0.000132   0.000216
   55  H   6  S  -0.000850  -0.007102  -0.000944   0.001315   0.002159
   56  H   7  S  -0.000001  -0.000132   0.000094   0.000132   0.000216
   57  H   7  S  -0.000850  -0.007102   0.000944   0.001315   0.002159
   58  H   8  S  -0.000001  -0.000132  -0.000094  -0.000132   0.000216
   59  H   8  S  -0.000850  -0.007102  -0.000944  -0.001315   0.002159
   60  H   9  S  -0.000001  -0.000132   0.000094  -0.000132   0.000216
   61  H   9  S  -0.000850  -0.007102   0.000944  -0.001315   0.002159

                      6          7          8          9         10

    6  SI  1  S   0.367799
    7  SI  1  X   0.000000   0.638535
    8  SI  1  Y   0.000000   0.000000   0.638535
    9  SI  1  Z   0.000000   0.000000   0.000000   0.638535
   10  SI  1  S   0.132169   0.000000   0.000000   0.000000   0.108576
   11  SI  1  X   0.000000   0.180408   0.000000   0.000000   0.000000
   12  SI  1  Y   0.000000   0.000000   0.180408   0.000000   0.000000
   13  SI  1  Z   0.000000   0.000000   0.000000   0.180408   0.000000
   14  SI  1 XX   0.259974   0.000000   0.000000   0.000000   0.096762
   15  SI  1 YY   0.259974   0.000000   0.000000   0.000000   0.096762
   16  SI  1 ZZ   0.259974   0.000000   0.000000   0.000000   0.096762
   17  SI  1 XY   0.000000   0.000000   0.000000   0.000000   0.000000
   18  SI  1 XZ   0.000000   0.000000   0.000000   0.000000   0.000000
   19  SI  1 YZ   0.000000   0.000000   0.000000   0.000000   0.000000
   20  C   2  S  -0.007314   0.000000   0.001040   0.002187   0.003799
   21  C   2  S  -0.010794   0.000000  -0.019567  -0.041131   0.023138
   22  C   2  X   0.000000   0.011316   0.000000   0.000000   0.000000
   23  C   2  Y   0.015906   0.000000  -0.015628  -0.056635   0.011221
   24  C   2  Z   0.033435   0.000000  -0.056635  -0.107734   0.023586
   25  C   2  S   0.024701   0.000000  -0.044797  -0.094164   0.042290
   26  C   2  X   0.000000   0.072692   0.000000   0.000000   0.000000
   27  C   2  Y   0.056532   0.000000   0.016112  -0.118933   0.033387
   28  C   2  Z   0.118832   0.000000  -0.118933  -0.177308   0.070180
   29  C   2 XX  -0.023976   0.000000  -0.000107  -0.000224   0.015379
   30  C   2 YY  -0.013567   0.000000   0.004035  -0.028877   0.017244
   31  C   2 ZZ   0.022016   0.000000  -0.060335  -0.089469   0.023618
   32  C   2 XY   0.000000   0.015391   0.000000   0.000000   0.000000
   33  C   2 XZ   0.000000   0.032353   0.000000   0.000000   0.000000
   34  C   2 YZ   0.037897   0.000000  -0.017275  -0.088928   0.006789
   35  C   3  S  -0.007314   0.000000  -0.001040   0.002187   0.003799
   36  C   3  S  -0.010794   0.000000   0.019567  -0.041131   0.023138
   37  C   3  X   0.000000   0.011316   0.000000   0.000000   0.000000
   38  C   3  Y  -0.015906   0.000000  -0.015628   0.056635  -0.011221
   39  C   3  Z   0.033435   0.000000   0.056635  -0.107734   0.023586
   40  C   3  S   0.024701   0.000000   0.044797  -0.094164   0.042290
   41  C   3  X   0.000000   0.072692   0.000000   0.000000   0.000000
   42  C   3  Y  -0.056532   0.000000   0.016112   0.118933  -0.033387
   43  C   3  Z   0.118832   0.000000   0.118933  -0.177308   0.070180
   44  C   3 XX  -0.023976   0.000000   0.000107  -0.000224   0.015379
   45  C   3 YY  -0.013567   0.000000  -0.004035  -0.028877   0.017244
   46  C   3 ZZ   0.022016   0.000000   0.060335  -0.089469   0.023618
   47  C   3 XY   0.000000  -0.015391   0.000000   0.000000   0.000000
   48  C   3 XZ   0.000000   0.032353   0.000000   0.000000   0.000000
   49  C   3 YZ  -0.037897   0.000000  -0.017275   0.088928  -0.006789
   50  H   4  S   0.025408   0.113847   0.000000   0.074720   0.033411
   51  H   4  S   0.074043   0.140601   0.000000   0.092279   0.067435
   52  H   5  S   0.025408  -0.113847   0.000000   0.074720   0.033411
   53  H   5  S   0.074043  -0.140601   0.000000   0.092279   0.067435
   54  H   6  S  -0.013027  -0.007081   0.009861   0.016191  -0.000474
   55  H   6  S  -0.013002   0.003696  -0.005147  -0.008451   0.008983
   56  H   7  S  -0.013027   0.007081   0.009861   0.016191  -0.000474
   57  H   7  S  -0.013002  -0.003696  -0.005147  -0.008451   0.008983
   58  H   8  S  -0.013027  -0.007081  -0.009861   0.016191  -0.000474
   59  H   8  S  -0.013002   0.003696   0.005147  -0.008451   0.008983
   60  H   9  S  -0.013027   0.007081  -0.009861   0.016191  -0.000474
   61  H   9  S  -0.013002  -0.003696   0.005147  -0.008451   0.008983

                     11         12         13         14         15

   11  SI  1  X   0.180959
   12  SI  1  Y   0.000000   0.180959
   13  SI  1  Z   0.000000   0.000000   0.180959
   14  SI  1 XX   0.000000   0.000000   0.000000   0.855833
   15  SI  1 YY   0.000000   0.000000   0.000000  -0.065833   0.855833
   16  SI  1 ZZ   0.000000   0.000000   0.000000  -0.065833  -0.065833
   17  SI  1 XY   0.000000   0.000000   0.000000   0.000000   0.000000
   18  SI  1 XZ   0.000000   0.000000   0.000000   0.000000   0.000000
   19  SI  1 YZ   0.000000   0.000000   0.000000   0.000000   0.000000
   20  C   2  S   0.000000  -0.007802  -0.016400  -0.003736  -0.008282
   21  C   2  S   0.000000  -0.038826  -0.081613  -0.038620  -0.021855
   22  C   2  X   0.027798   0.000000   0.000000   0.000000   0.000000
   23  C   2  Y   0.000000   0.015015  -0.026869  -0.017811  -0.010305
[...]
   38  C   3  Y   0.016122   0.000000   0.064887   0.000000   0.019977
   39  C   3  Z   0.000000   0.000000   0.000000   0.000633   0.000000
   40  C   3  S  -0.007791   0.000000   0.019977   0.000000  -0.055095
   41  C   3  X   0.000000  -0.005108   0.000000   0.000000   0.000000
   42  C   3  Y   0.011101   0.000000   0.038482   0.000000   0.010947
   43  C   3  Z   0.000000   0.000000   0.000000  -0.007944   0.000000
   44  C   3 XX  -0.000213   0.000000  -0.000661   0.000000  -0.000837
   45  C   3 YY   0.002558   0.000000   0.005932   0.000000   0.003848
   46  C   3 ZZ  -0.000168   0.000000  -0.000484   0.000000  -0.001624
   47  C   3 XY   0.000000   0.000841   0.000000   0.000000   0.000000
   48  C   3 XZ   0.000000   0.000000   0.000000   0.000000   0.000000
   49  C   3 YZ   0.000000   0.000000   0.000000   0.001138   0.000000
   50  H   4  S  -0.000002  -0.000002   0.000001  -0.000011  -0.000102
   51  H   4  S  -0.000250  -0.000246   0.000221  -0.001486  -0.000672
   52  H   5  S  -0.000002  -0.000002   0.000001  -0.000011  -0.000102
   53  H   5  S  -0.000250  -0.000246   0.000221  -0.001486  -0.000672
   54  H   6  S   0.030208   0.065473   0.016570   0.011928   0.036488
   55  H   6  S   0.017702   0.033247   0.008204   0.008171   0.013820
   56  H   7  S   0.030208   0.065473   0.016570   0.011928   0.036488
   57  H   7  S   0.017702   0.033247   0.008204   0.008171   0.013820
   58  H   8  S  -0.000060  -0.000059  -0.000254  -0.000026  -0.000654
   59  H   8  S  -0.000893  -0.000827  -0.002739  -0.000389   0.001581
   60  H   9  S  -0.000060  -0.000059  -0.000254  -0.000026  -0.000654
   61  H   9  S  -0.000893  -0.000827  -0.002739  -0.000389   0.001581

                     26         27         28         29         30

   26  C   2  X   0.133504
   27  C   2  Y   0.000000   0.108124
   28  C   2  Z   0.000000   0.000000   0.186875
   29  C   2 XX   0.000000   0.000000   0.000000   0.002224
   30  C   2 YY   0.000000   0.000000   0.000000  -0.000331   0.002096
   31  C   2 ZZ   0.000000   0.000000   0.000000  -0.000104  -0.000261
   32  C   2 XY   0.000000   0.000000   0.000000   0.000000   0.000000
   33  C   2 XZ   0.000000   0.000000   0.000000   0.000000   0.000000
   34  C   2 YZ   0.000000   0.000000   0.000000   0.000000   0.000000
   35  C   3  S   0.000000  -0.000890   0.000000   0.000001  -0.000105
   36  C   3  S   0.000000   0.011101   0.000000  -0.000213   0.002558
   37  C   3  X  -0.005108   0.000000   0.000000   0.000000   0.000000
   38  C   3  Y   0.000000   0.038482   0.000000  -0.000661   0.005932
   39  C   3  Z   0.000000   0.000000  -0.007944   0.000000   0.000000
   40  C   3  S   0.000000   0.010947   0.000000  -0.000837   0.003848
   41  C   3  X  -0.015364   0.000000   0.000000   0.000000   0.000000
   42  C   3  Y   0.000000   0.024348   0.000000  -0.001990   0.004904
   43  C   3  Z   0.000000   0.000000  -0.029876   0.000000   0.000000
   44  C   3 XX   0.000000  -0.001990   0.000000   0.000004  -0.000035
   45  C   3 YY   0.000000   0.004904   0.000000  -0.000035   0.000622
   46  C   3 ZZ   0.000000  -0.002021   0.000000   0.000002  -0.000030
   47  C   3 XY   0.000919   0.000000   0.000000   0.000000   0.000000
   48  C   3 XZ   0.000000   0.000000   0.000000   0.000000   0.000000
   49  C   3 YZ   0.000000   0.000000   0.001129   0.000000   0.000000
   50  H   4  S  -0.000249   0.000156  -0.000746   0.000000   0.000000
   51  H   4  S  -0.001686   0.001642  -0.006411   0.000000   0.000022
   52  H   5  S  -0.000249   0.000156  -0.000746   0.000000   0.000000
   53  H   5  S  -0.001686   0.001642  -0.006411   0.000000   0.000022
   54  H   6  S   0.052756   0.010289   0.009087   0.005016  -0.000686
   55  H   6  S   0.043283   0.008155   0.011113   0.003574  -0.001041
   56  H   7  S   0.052756   0.010289   0.009087   0.005016  -0.000686
   57  H   7  S   0.043283   0.008155   0.011113   0.003574  -0.001041
   58  H   8  S  -0.001502  -0.003001  -0.000708   0.000000  -0.000003
   59  H   8  S  -0.003580  -0.005126  -0.002148   0.000028  -0.000227
   60  H   9  S  -0.001502  -0.003001  -0.000708   0.000000  -0.000003
   61  H   9  S  -0.003580  -0.005126  -0.002148   0.000028  -0.000227

                     31         32         33         34         35

   31  C   2 ZZ   0.001090
   32  C   2 XY   0.000000   0.001334
   33  C   2 XZ   0.000000   0.000000   0.000845
   34  C   2 YZ   0.000000   0.000000   0.000000   0.000760
   35  C   3  S   0.000000   0.000000   0.000000   0.000000   2.058081
   36  C   3  S  -0.000168   0.000000   0.000000   0.000000  -0.018238
   37  C   3  X   0.000000   0.000841   0.000000   0.000000   0.000000
   38  C   3  Y  -0.000484   0.000000   0.000000   0.000000   0.000000
   39  C   3  Z   0.000000   0.000000   0.000000   0.001138   0.000000
   40  C   3  S  -0.001624   0.000000   0.000000   0.000000  -0.031513
   41  C   3  X   0.000000   0.000919   0.000000   0.000000   0.000000
   42  C   3  Y  -0.002021   0.000000   0.000000   0.000000   0.000000
   43  C   3  Z   0.000000   0.000000   0.000000   0.001129   0.000000
   44  C   3 XX   0.000002   0.000000   0.000000   0.000000  -0.000818
   45  C   3 YY  -0.000030   0.000000   0.000000   0.000000  -0.000461
   46  C   3 ZZ  -0.000003   0.000000   0.000000   0.000000  -0.000298
   47  C   3 XY   0.000000  -0.000167   0.000000   0.000000   0.000000
   48  C   3 XZ   0.000000   0.000000  -0.000001   0.000000   0.000000
   49  C   3 YZ   0.000000   0.000000   0.000000  -0.000001   0.000000
   50  H   4  S   0.000000   0.000000   0.000000   0.000000   0.000000
   51  H   4  S  -0.000004   0.000007   0.000044  -0.000020   0.000009
   52  H   5  S   0.000000   0.000000   0.000000   0.000000   0.000000
   53  H   5  S  -0.000004   0.000007   0.000044  -0.000020   0.000009
   54  H   6  S  -0.000485   0.002421   0.001687   0.000466   0.000000
   55  H   6  S  -0.001193   0.000419   0.000285   0.000058   0.000035
   56  H   7  S  -0.000485   0.002421   0.001687   0.000466   0.000000
   57  H   7  S  -0.001193   0.000419   0.000285   0.000058   0.000035
   58  H   8  S   0.000001   0.000029  -0.000001   0.000007  -0.001968
   59  H   8  S   0.000125   0.000156  -0.000008   0.000039  -0.001374
   60  H   9  S   0.000001   0.000029  -0.000001   0.000007  -0.001968
   61  H   9  S   0.000125   0.000156  -0.000008   0.000039  -0.001374

                     36         37         38         39         40

   36  C   3  S   0.259251
   37  C   3  X   0.000000   0.383465
   38  C   3  Y   0.000000   0.000000   0.341279
   39  C   3  Z   0.000000   0.000000   0.000000   0.383097
   40  C   3  S   0.215402   0.000000   0.000000   0.000000   0.318820
   41  C   3  X   0.000000   0.127583   0.000000   0.000000   0.000000
   42  C   3  Y   0.000000   0.000000   0.103114   0.000000   0.000000
   43  C   3  Z   0.000000   0.000000   0.000000   0.147358   0.000000
   44  C   3 XX   0.009380   0.000000   0.000000   0.000000   0.007825
   45  C   3 YY   0.002744   0.000000   0.000000   0.000000   0.000505
   46  C   3 ZZ  -0.000481   0.000000   0.000000   0.000000   0.002489
   47  C   3 XY   0.000000   0.000000   0.000000   0.000000   0.000000
   48  C   3 XZ   0.000000   0.000000   0.000000   0.000000   0.000000
   49  C   3 YZ   0.000000   0.000000   0.000000   0.000000   0.000000
   50  H   4  S  -0.000002  -0.000002   0.000001  -0.000011  -0.000102
   51  H   4  S  -0.000250  -0.000246   0.000221  -0.001486  -0.000672
   52  H   5  S  -0.000002  -0.000002   0.000001  -0.000011  -0.000102
   53  H   5  S  -0.000250  -0.000246   0.000221  -0.001486  -0.000672
   54  H   6  S  -0.000060  -0.000059  -0.000254  -0.000026  -0.000654
   55  H   6  S  -0.000893  -0.000827  -0.002739  -0.000389   0.001581
   56  H   7  S  -0.000060  -0.000059  -0.000254  -0.000026  -0.000654
   57  H   7  S  -0.000893  -0.000827  -0.002739  -0.000389   0.001581
   58  H   8  S   0.030208   0.065473   0.016570   0.011928   0.036488
   59  H   8  S   0.017702   0.033247   0.008204   0.008171   0.013820
   60  H   9  S   0.030208   0.065473   0.016570   0.011928   0.036488
   61  H   9  S   0.017702   0.033247   0.008204   0.008171   0.013820

                     41         42         43         44         45

   41  C   3  X   0.133504
   42  C   3  Y   0.000000   0.108124
   43  C   3  Z   0.000000   0.000000   0.186875
   44  C   3 XX   0.000000   0.000000   0.000000   0.002224
   45  C   3 YY   0.000000   0.000000   0.000000  -0.000331   0.002096
   46  C   3 ZZ   0.000000   0.000000   0.000000  -0.000104  -0.000261
   47  C   3 XY   0.000000   0.000000   0.000000   0.000000   0.000000
   48  C   3 XZ   0.000000   0.000000   0.000000   0.000000   0.000000
   49  C   3 YZ   0.000000   0.000000   0.000000   0.000000   0.000000
   50  H   4  S  -0.000249   0.000156  -0.000746   0.000000   0.000000
   51  H   4  S  -0.001686   0.001642  -0.006411   0.000000   0.000022
   52  H   5  S  -0.000249   0.000156  -0.000746   0.000000   0.000000
   53  H   5  S  -0.001686   0.001642  -0.006411   0.000000   0.000022
   54  H   6  S  -0.001502  -0.003001  -0.000708   0.000000  -0.000003
   55  H   6  S  -0.003580  -0.005126  -0.002148   0.000028  -0.000227
   56  H   7  S  -0.001502  -0.003001  -0.000708   0.000000  -0.000003
   57  H   7  S  -0.003580  -0.005126  -0.002148   0.000028  -0.000227
   58  H   8  S   0.052756   0.010289   0.009087   0.005016  -0.000686
   59  H   8  S   0.043283   0.008155   0.011113   0.003574  -0.001041
   60  H   9  S   0.052756   0.010289   0.009087   0.005016  -0.000686
   61  H   9  S   0.043283   0.008155   0.011113   0.003574  -0.001041

                     46         47         48         49         50

   46  C   3 ZZ   0.001090
   47  C   3 XY   0.000000   0.001334
   48  C   3 XZ   0.000000   0.000000   0.000845
   49  C   3 YZ   0.000000   0.000000   0.000000   0.000760
   50  H   4  S   0.000000   0.000000   0.000000   0.000000   0.196134
   51  H   4  S  -0.000004   0.000007   0.000044  -0.000020   0.144643
   52  H   5  S   0.000000   0.000000   0.000000   0.000000  -0.000018
   53  H   5  S  -0.000004   0.000007   0.000044  -0.000020  -0.001817
   54  H   6  S   0.000001   0.000029  -0.000001   0.000007   0.000000
   55  H   6  S   0.000125   0.000156  -0.000008   0.000039  -0.000025
   56  H   7  S   0.000001   0.000029  -0.000001   0.000007   0.000000
   57  H   7  S   0.000125   0.000156  -0.000008   0.000039   0.000009
   58  H   8  S  -0.000485   0.002421   0.001687   0.000466   0.000000
   59  H   8  S  -0.001193   0.000419   0.000285   0.000058  -0.000025
   60  H   9  S  -0.000485   0.002421   0.001687   0.000466   0.000000
   61  H   9  S  -0.001193   0.000419   0.000285   0.000058   0.000009

                     51         52         53         54         55

   51  H   4  S   0.254447
   52  H   5  S  -0.001817   0.196134
   53  H   5  S  -0.011157   0.144643   0.254447
   54  H   6  S  -0.000092   0.000000   0.000011   0.205119
   55  H   6  S  -0.000423   0.000009   0.000261   0.090344   0.099913
   56  H   7  S   0.000011   0.000000  -0.000092  -0.000375  -0.003968
   57  H   7  S   0.000261  -0.000025  -0.000423  -0.003968  -0.007977
   58  H   8  S  -0.000092   0.000000   0.000011  -0.000010  -0.000703
   59  H   8  S  -0.000423   0.000009   0.000261  -0.000703  -0.003462
   60  H   9  S   0.000011   0.000000  -0.000092   0.000000   0.000124
   61  H   9  S   0.000261  -0.000025  -0.000423   0.000124   0.000873

                     56         57         58         59         60

   56  H   7  S   0.205119
   57  H   7  S   0.090344   0.099913
   58  H   8  S   0.000000   0.000124   0.205119
   59  H   8  S   0.000124   0.000873   0.090344   0.099913
   60  H   9  S  -0.000010  -0.000703  -0.000375  -0.003968   0.205119
   61  H   9  S  -0.000703  -0.003462  -0.003968  -0.007977   0.090344

                     61

   61  H   9  S   0.099913

               ----- POPULATIONS IN EACH AO -----
                             MULLIKEN      LOWDIN
              1  SI  1  S     1.99911     1.99863
              2  SI  1  S     2.00013     1.96801
              3  SI  1  X     1.99356     1.96880
              4  SI  1  Y     1.99359     1.96840
              5  SI  1  Z     1.99361     1.96727
              6  SI  1  S     0.88467     0.38282
              7  SI  1  X     0.67255     0.59338
              8  SI  1  Y     0.61139     0.59764
              9  SI  1  Z     0.66874     0.54651
             10  SI  1  S     0.17242     0.26613
             11  SI  1  X     0.07124     0.27175
             12  SI  1  Y     0.14024     0.23578
             13  SI  1  Z     0.02820     0.19389
             14  SI  1 XX     0.07405     0.22296
             15  SI  1 YY    -0.00133     0.13633
             16  SI  1 ZZ     0.07609     0.21795
             17  SI  1 XY     0.00326     0.00606
             18  SI  1 XZ     0.08430     0.10451
             19  SI  1 YZ     0.06681     0.08552
             20  C   2  S     1.99654     1.98084
             21  C   2  S     0.62033     0.34562
             22  C   2  X     0.70525     0.63885
             23  C   2  Y     0.63345     0.57786
             24  C   2  Z     0.68392     0.63649
             25  C   2  S     0.64643     0.33349
             26  C   2  X     0.41942     0.49803
             27  C   2  Y     0.28652     0.41883
             28  C   2  Z     0.46440     0.56107
             29  C   2 XX     0.03009     0.16967
             30  C   2 YY     0.01603     0.14781
             31  C   2 ZZ     0.00329     0.13426
             32  C   2 XY     0.00898     0.01593
             33  C   2 XZ     0.00491     0.00767
             34  C   2 YZ     0.00576     0.01196
             35  C   3  S     1.99654     1.98084
             36  C   3  S     0.62033     0.34562
             37  C   3  X     0.70525     0.63885
             38  C   3  Y     0.63345     0.57786
             39  C   3  Z     0.68392     0.63649
             40  C   3  S     0.64643     0.33349
             41  C   3  X     0.41942     0.49803
             42  C   3  Y     0.28652     0.41883
             43  C   3  Z     0.46440     0.56107
             44  C   3 XX     0.03009     0.16967
             45  C   3 YY     0.01603     0.14781
             46  C   3 ZZ     0.00329     0.13426
             47  C   3 XY     0.00898     0.01593
             48  C   3 XZ     0.00491     0.00767
             49  C   3 YZ     0.00576     0.01196
             50  H   4  S     0.49569     0.48742
             51  H   4  S     0.59615     0.52195
             52  H   5  S     0.49569     0.48742
             53  H   5  S     0.59615     0.52195
             54  H   6  S     0.52075     0.48158
             55  H   6  S     0.28752     0.34146
             56  H   7  S     0.52075     0.48158
             57  H   7  S     0.28752     0.34146
             58  H   8  S     0.52075     0.48158
             59  H   8  S     0.28752     0.34146
             60  H   9  S     0.52075     0.48158
             61  H   9  S     0.28752     0.34146

          ----- MULLIKEN ATOMIC OVERLAP POPULATIONS -----
          (OFF-DIAGONAL ELEMENTS NEED TO BE MULTIPLIED BY 2)

             1           2           3           4           5

    1   12.1599683
    2    0.3406789   5.3086402
    3    0.3406789   0.1686165   5.3086402
    4    0.3868682  -0.0097818  -0.0097818   0.7398660
    5    0.3868682  -0.0097818  -0.0097818  -0.0148101   0.7398660
    6   -0.0206122   0.3836724  -0.0202040  -0.0005405   0.0002813
    7   -0.0206122   0.3836724  -0.0202040   0.0002813  -0.0005405
    8   -0.0206122  -0.0202040   0.3836724  -0.0005405   0.0002813
    9   -0.0206122  -0.0202040   0.3836724   0.0002813  -0.0005405

             6           7           8           9

    6    0.4857197
    7   -0.0162883   0.4857197
    8   -0.0048779   0.0011206   0.4857197
    9    0.0011206  -0.0048779  -0.0162883   0.4857197

          TOTAL MULLIKEN AND LOWDIN ATOMIC POPULATIONS
       ATOM         MULL.POP.                    LOW.POP.

          TOTAL MULLIKEN AND LOWDIN ATOMIC POPULATIONS
       ATOM         MULL.POP.    CHARGE          LOW.POP.     CHARGE
    1 SILICON      13.532614                    13.732349
    1 SILICON      13.532614    0.467386        13.732349    0.267651
    2 CARBON        6.525309                     6.478384
    2 CARBON        6.525309   -0.525309         6.478384   -0.478384
    3 CARBON        6.525309                     6.478384
    3 CARBON        6.525309   -0.525309         6.478384   -0.478384
    4 HYDROGEN      1.091842                     1.009377
    4 HYDROGEN      1.091842   -0.091842         1.009377   -0.009377
    5 HYDROGEN      1.091842                     1.009377
    5 HYDROGEN      1.091842   -0.091842         1.009377   -0.009377
    6 HYDROGEN      0.808271                     0.823032
    6 HYDROGEN      0.808271    0.191729         0.823032    0.176968
    7 HYDROGEN      0.808271                     0.823032
    7 HYDROGEN      0.808271    0.191729         0.823032    0.176968
    8 HYDROGEN      0.808271                     0.823032
    8 HYDROGEN      0.808271    0.191729         0.823032    0.176968
    9 HYDROGEN      0.808271                     0.823032
    9 HYDROGEN      0.808271    0.191729         0.823032    0.176968

          -------------------------------
          BOND ORDER AND VALENCE ANALYSIS     BOND ORDER THRESHOLD=0.050
          -------------------------------

                   BOND                       BOND                       BOND
  ATOM PAIR DIST  ORDER      ATOM PAIR DIST  ORDER      ATOM PAIR DIST  ORDER
    1   2  1.848  1.003        1   3  1.848  1.003        1   4  1.469  0.955
    1   5  1.469  0.955        2   3  1.588  0.854        2   6  1.077  0.941
    2   7  1.077  0.941        3   8  1.077  0.941        3   9  1.077  0.941

                       TOTAL       BONDED        FREE
      ATOM            VALENCE     VALENCE     VALENCE
    1 SILICON           3.924       3.924       0.000
    2 CARBON            3.732       3.732       0.000
    3 CARBON            3.732       3.732       0.000
    4 HYDROGEN          0.971       0.971       0.000
    5 HYDROGEN          0.971       0.971       0.000
    6 HYDROGEN          0.931       0.931       0.000
    7 HYDROGEN          0.931       0.931       0.000
    8 HYDROGEN          0.931       0.931       0.000
    9 HYDROGEN          0.931       0.931       0.000

          ---------------------
          ELECTROSTATIC MOMENTS
          ---------------------

 MEMORY ASSIGNMENT (ELECTROSTATIC MOMENTS):
           IELM   = 5012256    IEMW   = 5017929    IDENSA = 5018604    IDENSB = 5020495    LAST   = 5022385
 POINT   1           X           Y           Z (BOHR)    CHARGE
                 0.000000    0.000000    0.051188        0.00 (A.U.)
         DX          DY          DZ         /D/  (DEBYE)
     0.000000    0.000000    0.090846    0.090846
 ...... END OF PROPERTY EVALUATION ......

 CPU        TIME:   STEP =      0.03 ,  TOTAL =        5.2 SECONDS (    0.1 MIN)
 WALL CLOCK TIME:   STEP =      0.03 ,  TOTAL =        5.3 SECONDS (    0.1 MIN)
 CPU UTILIZATION:   STEP =    100.14%,  TOTAL =      99.39%
 ......END OF NBO ANALYSIS......

 CPU        TIME:   STEP =      0.00 ,  TOTAL =        5.2 SECONDS (    0.1 MIN)
 WALL CLOCK TIME:   STEP =      0.00 ,  TOTAL =        5.3 SECONDS (    0.1 MIN)
 CPU UTILIZATION:   STEP =    100.00%,  TOTAL =      99.39%
      100000 WORDS OF    DYNAMIC MEMORY USED
 EXECUTION OF GAMESS TERMINATED NORMALLY 18:34:55 LT  24-MAR-2003
