ch3oh.g09                                                               
Freq      RB3LYP                                                      6-31G(d)            
Number of atoms                            I                6
Info1-9                                    I   N=           9
          14          14           0           0           0         100
           6          18        -502
Charge                                     I                0
Multiplicity                               I                1
Number of electrons                        I               18
Number of alpha electrons                  I                9
Number of beta electrons                   I                9
Number of basis functions                  I               38
Number of independent functions            I               38
Number of point charges in /Mol/           I                0
Number of translation vectors              I                0
Atomic numbers                             I   N=           6
           6           8           1           1           1           1
Nuclear charges                            R   N=           6
  6.00000000E+00  8.00000000E+00  1.00000000E+00  1.00000000E+00  1.00000000E+00
  1.00000000E+00
Current cartesian coordinates              R   N=          18
  1.25230261E+00 -3.68685569E-02  1.88972613E-05 -1.41604738E+00  2.31548143E-01
  0.00000000E+00  1.95815312E+00 -1.02763307E+00 -1.68818684E+00  1.95813422E+00
 -1.02763307E+00  1.68822464E+00  2.03969480E+00  1.87338000E+00  0.00000000E+00
 -2.14138096E+00 -1.44924987E+00 -5.66917840E-05
Force Field                                I                0
Int Atom Types                             I   N=           6
           0           0           0           0           0           0
MM charges                                 R   N=           6
  0.00000000E+00  0.00000000E+00  0.00000000E+00  0.00000000E+00  0.00000000E+00
  0.00000000E+00
Integer atomic weights                     I   N=           6
          12          16           1           1           1           1
Real atomic weights                        R   N=           6
  1.20000000E+01  1.59949146E+01  1.00782504E+00  1.00782504E+00  1.00782504E+00
  1.00782504E+00
Atom fragment info                         I   N=           6
           0           0           0           0           0           0
Atom residue num                           I   N=           6
           0           0           0           0           0           0
Nuclear spins                              I   N=           6
           0           0           1           1           1           1
Nuclear ZEff                               R   N=           6
 -3.60000000E+00 -5.60000000E+00 -1.00000000E+00 -1.00000000E+00 -1.00000000E+00
 -1.00000000E+00
Nuclear QMom                               R   N=           6
  0.00000000E+00  0.00000000E+00  0.00000000E+00  0.00000000E+00  0.00000000E+00
  0.00000000E+00
Nuclear GFac                               R   N=           6
  0.00000000E+00  0.00000000E+00  2.79284600E+00  2.79284600E+00  2.79284600E+00
  2.79284600E+00
MicOpt                                     I   N=           6
          -1          -1          -1          -1          -1          -1
Number of contracted shells                I               16
Number of primitive shells                 I               38
Pure/Cartesian d shells                    I                1
Pure/Cartesian f shells                    I                0
Highest angular momentum                   I                2
Largest degree of contraction              I                6
Shell types                                I   N=          16
           0          -1          -1           2           0          -1
          -1           2           0           0           0           0
           0           0           0           0
Number of primitives per shell             I   N=          16
           6           3           1           1           6           3
           1           1           3           1           3           1
           3           1           3           1
Shell to atom map                          I   N=          16
           1           1           1           1           2           2
           2           2           3           3           4           4
           5           5           6           6
Primitive exponents                        R   N=          38
  3.04752488E+03  4.57369518E+02  1.03948685E+02  2.92101553E+01  9.28666296E+00
  3.16392696E+00  7.86827235E+00  1.88128854E+00  5.44249258E-01  1.68714478E-01
  8.00000000E-01  5.48467166E+03  8.25234946E+02  1.88046958E+02  5.29645000E+01
  1.68975704E+01  5.79963534E+00  1.55396162E+01  3.59993359E+00  1.01376175E+00
  2.70005823E-01  8.00000000E-01  1.87311370E+01  2.82539436E+00  6.40121692E-01
  1.61277759E-01  1.87311370E+01  2.82539436E+00  6.40121692E-01  1.61277759E-01
  1.87311370E+01  2.82539436E+00  6.40121692E-01  1.61277759E-01  1.87311370E+01
  2.82539436E+00  6.40121692E-01  1.61277759E-01
Contraction coefficients                   R   N=          38
  1.83473713E-03  1.40373228E-02  6.88426223E-02  2.32184443E-01  4.67941348E-01
  3.62311985E-01 -1.19332420E-01 -1.60854152E-01  1.14345644E+00  1.00000000E+00
  1.00000000E+00  1.83107443E-03  1.39501722E-02  6.84450781E-02  2.32714336E-01
  4.70192898E-01  3.58520853E-01 -1.10777550E-01 -1.48026263E-01  1.13076702E+00
  1.00000000E+00  1.00000000E+00  3.34946043E-02  2.34726953E-01  8.13757326E-01
  1.00000000E+00  3.34946043E-02  2.34726953E-01  8.13757326E-01  1.00000000E+00
  3.34946043E-02  2.34726953E-01  8.13757326E-01  1.00000000E+00  3.34946043E-02
  2.34726953E-01  8.13757326E-01  1.00000000E+00
P(S=P) Contraction coefficients            R   N=          38
  0.00000000E+00  0.00000000E+00  0.00000000E+00  0.00000000E+00  0.00000000E+00
  0.00000000E+00  6.89990666E-02  3.16423961E-01  7.44308291E-01  1.00000000E+00
  0.00000000E+00  0.00000000E+00  0.00000000E+00  0.00000000E+00  0.00000000E+00
  0.00000000E+00  0.00000000E+00  7.08742682E-02  3.39752839E-01  7.27158577E-01
  1.00000000E+00  0.00000000E+00  0.00000000E+00  0.00000000E+00  0.00000000E+00
  0.00000000E+00  0.00000000E+00  0.00000000E+00  0.00000000E+00  0.00000000E+00
  0.00000000E+00  0.00000000E+00  0.00000000E+00  0.00000000E+00  0.00000000E+00
  0.00000000E+00  0.00000000E+00  0.00000000E+00
Coordinates of each shell                  R   N=          48
  1.25230059E+00 -3.68678506E-02  1.36480221E-05  1.25230059E+00 -3.68678506E-02
  1.36480221E-05  1.25230059E+00 -3.68678506E-02  1.36480221E-05  1.25230059E+00
 -3.68678506E-02  1.36480221E-05 -1.41605000E+00  2.31542871E-01 -5.24923926E-06
 -1.41605000E+00  2.31542871E-01 -5.24923926E-06 -1.41605000E+00  2.31542871E-01
 -5.24923926E-06 -1.41605000E+00  2.31542871E-01 -5.24923926E-06  1.95815332E+00
 -1.02763078E+00 -1.68819209E+00  1.95815332E+00 -1.02763078E+00 -1.68819209E+00
  1.95813442E+00 -1.02763078E+00  1.68821939E+00  1.95813442E+00 -1.02763078E+00
  1.68821939E+00  2.03968850E+00  1.87338247E+00 -5.24923926E-06  2.03968850E+00
  1.87338247E+00 -5.24923926E-06 -2.14137981E+00 -1.44925677E+00 -6.19410232E-05
 -2.14137981E+00 -1.44925677E+00 -6.19410232E-05
Constraint Structure                       R   N=          18
  1.25230059E+00 -3.68678506E-02  1.36480221E-05 -1.41605000E+00  2.31542871E-01
 -5.24923926E-06  1.95815332E+00 -1.02763078E+00 -1.68819209E+00  1.95813442E+00
 -1.02763078E+00  1.68821939E+00  2.03968850E+00  1.87338247E+00 -5.24923926E-06
 -2.14137981E+00 -1.44925677E+00 -6.19410232E-05
Num ILSW                                   I              100
ILSW                                       I   N=         100
           0           1           0           1           2           0
           0           0           0           0         402          -1
           0           0           0           0           0           0
           0           0           1           0           1           0
           1           0           0           0           0           0
           0           0      100000           0          -1           0
           0           0           0           0           0           0
           0           0           0           1           0           0
           0           0           1           0           0           0
           0           0           4          40           0           0
           0           0           5           0           0           0
           0           0           0           0           0           0
           0           0           0           0           0           0
           0           0           0           0           0           0
           0           0           0           0           0           0
           0           0           0           0           0           0
           0           0           0           0
Num RLSW                                   I               40
RLSW                                       R   N=          40
  8.00000000E-01  7.20000000E-01  1.00000000E+00  8.10000000E-01  2.00000000E-01
  0.00000000E+00  0.00000000E+00  1.00000000E+00  0.00000000E+00  0.00000000E+00
  0.00000000E+00  0.00000000E+00  1.00000000E+00  0.00000000E+00  0.00000000E+00
  0.00000000E+00  0.00000000E+00  1.00000000E+00  0.00000000E+00  0.00000000E+00
  0.00000000E+00  0.00000000E+00  1.00000000E+00  0.00000000E+00  0.00000000E+00
  0.00000000E+00  0.00000000E+00  1.00000000E+00  0.00000000E+00  0.00000000E+00
  0.00000000E+00  0.00000000E+00  0.00000000E+00  0.00000000E+00  0.00000000E+00
  0.00000000E+00  0.00000000E+00  0.00000000E+00  1.00000000E+00  1.00000000E+00
MxBond                                     I                4
NBond                                      I   N=           6
           4           2           1           1           1           1
IBond                                      I   N=          24
           2           3           4           5           1           6
           0           0           1           0           0           0
           1           0           0           0           1           0
           0           0           2           0           0           0
RBond                                      R   N=          24
  1.00000000E+00  1.00000000E+00  1.00000000E+00  1.00000000E+00  1.00000000E+00
  1.00000000E+00  0.00000000E+00  0.00000000E+00  1.00000000E+00  0.00000000E+00
  0.00000000E+00  0.00000000E+00  1.00000000E+00  0.00000000E+00  0.00000000E+00
  0.00000000E+00  1.00000000E+00  0.00000000E+00  0.00000000E+00  0.00000000E+00
  1.00000000E+00  0.00000000E+00  0.00000000E+00  0.00000000E+00
Virial Ratio                               R      2.008827053183419E+00
SCF Energy                                 R     -1.157144046857806E+02
Total Energy                               R     -1.157144046857806E+02
RMS Force                                  R      1.409607453859425E-04
RMS Density                                R      1.848414334565861E-09
External E-field                           R   N=          35
  0.00000000E+00  0.00000000E+00  0.00000000E+00  0.00000000E+00  0.00000000E+00
  0.00000000E+00  0.00000000E+00  0.00000000E+00  0.00000000E+00  0.00000000E+00
  0.00000000E+00  0.00000000E+00  0.00000000E+00  0.00000000E+00  0.00000000E+00
  0.00000000E+00  0.00000000E+00  0.00000000E+00  0.00000000E+00  0.00000000E+00
  0.00000000E+00  0.00000000E+00  0.00000000E+00  0.00000000E+00  0.00000000E+00
  0.00000000E+00  0.00000000E+00  0.00000000E+00  0.00000000E+00  0.00000000E+00
  0.00000000E+00  0.00000000E+00  0.00000000E+00  0.00000000E+00  0.00000000E+00
IOpCl                                      I                0
IROHF                                      I                0
Alpha Orbital Energies                     R   N=          38
 -1.91400678E+01 -1.02247006E+01 -1.01032326E+00 -6.78225212E-01 -5.02157180E-01
 -4.34081209E-01 -4.19089094E-01 -3.30343057E-01 -2.64504227E-01  7.52024584E-02
  1.30799026E-01  1.66679984E-01  1.75126539E-01  2.05656184E-01  5.34069824E-01
  5.67280345E-01  5.77371576E-01  7.86421819E-01  8.48909143E-01  8.69099737E-01
  9.01546045E-01  9.53693551E-01  9.77218630E-01  1.02239526E+00  1.11440462E+00
  1.46273541E+00  1.50263263E+00  1.58485376E+00  1.74394610E+00  2.03912356E+00
  2.11408027E+00  2.12884827E+00  2.34897276E+00  2.40255473E+00  2.44585251E+00
  2.79214067E+00  3.69708337E+00  4.21363878E+00
Alpha MO coefficients                      R   N=        1444
  6.40509258E-06  2.56971241E-04 -3.58575036E-04  1.04597727E-04 -2.19049645E-09
 -1.69623610E-03  8.68838517E-04 -4.97486431E-04  7.97644566E-09  2.75819316E-04
 -8.73209074E-06  2.97324656E-05 -3.18354099E-05  2.40157873E-09  1.61981039E-09
  9.92809521E-01  2.60626899E-02  4.46817455E-04 -9.56066027E-04 -2.14619922E-08
  1.11091322E-02  3.45511594E-04  1.05849251E-04  3.05779666E-09 -7.96980245E-03
 -7.92254934E-03 -7.87435061E-03  2.49169280E-05 -1.18982862E-09 -1.23952348E-09
  4.19291638E-05 -3.68057933E-05  4.19315877E-05 -3.68161448E-05  1.29266048E-04
  2.09873094E-04  3.97871523E-04 -1.07464374E-03  9.92897777E-01  4.89720615E-02
 -5.72814729E-04  2.50113735E-05 -1.15492696E-08 -1.35950929E-02 -4.39413564E-04
 -7.09762321E-05  3.46254514E-08 -8.92872329E-03 -9.14894679E-03 -9.16410202E-03
 -1.57884973E-05  4.63672823E-09 -5.27121549E-09 -1.04429731E-04 -1.54337455E-04
 -1.39480435E-04 -2.22374018E-05 -1.38162122E-09  1.79343892E-03  1.08209074E-04
  1.54933024E-04  2.88870711E-10 -7.89499915E-04 -7.03600352E-05 -2.01331926E-05
  6.39959043E-05 -8.00110184E-09  2.02551343E-10 -1.40511547E-04  2.60456454E-03
 -1.40524152E-04  2.60455561E-03 -1.31374121E-04  2.67766379E-03  3.89427230E-06
  3.85899906E-04 -7.42305610E-02  1.38831825E-01 -1.03065965E-01  4.74176092E-03
 -1.05511581E-06  6.18901482E-02 -2.42279166E-03 -6.68163752E-03  4.76938814E-08
  2.02328140E-02 -7.17446888E-03 -7.98187152E-03 -9.89534870E-04  3.00743007E-07
 -1.21961950E-08 -2.02540590E-01  4.51703017E-01  6.05540011E-02 -1.00322247E-01
 -2.30472674E-06  4.26234122E-01  2.76484159E-02 -4.81002083E-02 -1.18149120E-06
  9.58874576E-03  1.52530058E-02 -1.01901963E-02  4.58748090E-03  3.63673129E-07
  8.95157701E-07  2.42185293E-02  6.36960508E-04  2.42184789E-02  6.36618440E-04
  2.52551830E-02  6.58185269E-03  1.30729072E-01  1.04551040E-03 -1.79966970E-01
  3.61390739E-01  6.89692313E-02  1.63281505E-02  1.78706479E-07  3.30849614E-01
  3.74070977E-02 -4.85403897E-03 -2.68610114E-07 -1.16133850E-02  4.16025482E-03
  2.00892707E-03 -1.89132271E-03 -2.39453777E-07 -2.67005389E-07  5.96822938E-02
 -1.37157855E-01  1.84461528E-01  9.70967488E-02  4.42880148E-06 -1.72372467E-01
  8.90823383E-02  4.64456109E-02  2.16640484E-06  1.57888818E-02 -1.41311343E-02
  1.54702465E-03 -1.16064480E-02 -1.90164238E-07 -6.43243516E-07  1.31806682E-01
  3.54989023E-02  1.31807254E-01  3.54991136E-02  1.42046232E-01  4.31230734E-02
 -1.18956153E-01 -3.59474566E-02  2.61448286E-02 -4.88515462E-02 -2.29836196E-01
  2.16743802E-01  1.61048864E-06 -6.64160830E-02 -8.03294777E-02  9.87814442E-02
  8.51328606E-07  2.02088899E-02 -2.93836196E-03 -1.72480439E-02 -8.65641430E-03
  2.74093707E-08 -2.36967465E-07 -4.05754598E-02  9.33128726E-02  2.80821058E-01
  3.21030753E-01  1.13986063E-05  1.45349739E-01  1.31507699E-01  1.69923569E-01
  5.85679670E-06  1.11150938E-02 -2.79004712E-02  1.82947750E-03 -4.09199148E-03
 -5.69446139E-08 -1.03186512E-06 -1.18374294E-01 -7.20932713E-02 -1.18372196E-01
 -7.20910775E-02  2.93776538E-02  1.48520376E-02 -2.07597318E-01 -1.30237476E-01
 -6.40475216E-07  1.48519239E-06 -1.76645590E-05 -2.88442668E-05  4.24511152E-01
  1.29068975E-06 -7.32248038E-06 -1.39472516E-05  1.84098357E-01  9.17961570E-07
 -1.72157950E-06  4.30641291E-07 -9.63835069E-07  5.23991109E-03 -1.83825320E-02
  7.98135953E-07 -1.42900392E-06  1.55168350E-05 -8.92250282E-06  2.53622106E-01
 -3.25594354E-06  8.67712772E-06 -5.72522164E-06  1.60200769E-01  1.99225908E-07
  3.86617048E-07 -3.51710755E-07 -1.60168819E-06  1.31239260E-02 -1.28736207E-02
 -2.02834297E-01 -1.63778667E-01  2.02845365E-01  1.63785488E-01 -2.11903127E-05
 -1.48949084E-05 -4.78216432E-06 -4.19065408E-06 -5.22885527E-03  1.10737770E-02
 -2.73875298E-01 -3.09582988E-01 -3.26303748E-05  1.52150701E-02 -1.16144032E-01
 -1.63767313E-01 -1.46933580E-05  1.70413824E-02 -2.23631456E-02  1.25922814E-03
 -1.11096685E-02 -1.65861839E-07  1.71756333E-06  3.01499105E-02 -5.65918404E-02
  3.41631317E-01 -1.22194224E-01 -1.41209907E-05 -1.35473795E-01  1.98770649E-01
 -7.75772228E-02 -9.44973838E-06  7.77037656E-03  4.84504233E-03  7.85938161E-04
 -2.71319349E-02 -1.38082269E-06  6.59438987E-07  3.72734529E-02  2.24045742E-02
  3.72425536E-02  2.23780234E-02 -2.36628444E-01 -1.77209190E-01 -4.67367965E-02
 -4.85604106E-02  1.38495193E-02 -3.42135714E-02  1.19994997E-01 -2.69906077E-01
 -8.47568668E-06 -3.06882424E-02  3.83565792E-02 -8.67870613E-02 -4.14812823E-06
 -7.97037992E-03 -5.68815045E-03  1.62582942E-02 -2.60088512E-02 -7.38279739E-07
  5.36524894E-07 -6.73308538E-02  1.31458243E-01 -2.04073661E-01  4.20495352E-01
  5.25241632E-06  3.28990447E-01 -1.47944672E-01  2.84803866E-01  3.25312809E-06
 -7.88569965E-03 -3.35186498E-02  1.53341417E-04  9.27257481E-03  6.28810569E-08
 -6.93901853E-07  1.13051460E-01  1.33342691E-01  1.13039885E-01  1.33330259E-01
 -1.74152815E-01 -1.75794645E-01 -1.51485374E-01 -1.21285409E-01  2.06239953E-07
 -5.66943166E-07  1.65753402E-06  3.32320354E-06 -1.77422581E-01 -1.90041930E-07
  4.24198698E-07 -9.49935987E-07 -2.91521083E-02  4.26727447E-07  1.31597350E-07
 -4.95463367E-07  8.05342182E-07 -3.28919687E-02  1.39787974E-02 -1.66926164E-07
  2.82689655E-07 -7.14690980E-06 -1.54991319E-05  5.96360782E-01  8.82700594E-07
 -5.44103629E-06 -1.20439192E-05  4.64272339E-01 -1.51950271E-07  1.17847192E-06
 -1.17442639E-06  8.17520857E-08  6.83552122E-03 -2.47983202E-02  1.47161767E-01
  1.92016374E-01 -1.47164966E-01 -1.92020973E-01  4.38754387E-06  6.08025260E-06
 -5.90942008E-07 -2.46713955E-07  3.32153710E-02 -3.47232693E-02 -1.97965781E-01
  5.15857464E-02  4.62036520E-06 -6.31227695E-01 -5.67000286E-01  7.76739927E-02
  1.22674882E-05 -9.12952578E-03  1.69081541E-02  9.08730648E-03 -3.67530405E-03
 -1.54492307E-07  2.74906261E-07  9.00929083E-02 -1.11835542E-01  1.48154049E-02
  2.56224875E-01  6.21150102E-06 -1.12266355E+00  7.80810509E-03  4.57495867E-01
  1.03309584E-05  3.66758266E-02  2.31161956E-02  4.87358115E-02  3.49747239E-03
  1.05095669E-08 -6.81325619E-07  8.86744905E-03  4.62190018E-01  8.86529010E-03
  4.62161978E-01  7.20252816E-03  3.06414921E-01  1.18520390E-01  1.22237026E+00
 -1.54451668E-01  2.10692878E-01  7.11782362E-02 -1.31194235E-02  2.73909361E-07
  2.39772794E+00  1.79756946E-01 -1.49187294E-02 -5.35635295E-07 -1.70574025E-02
 -2.23565650E-03 -8.46316501E-03 -1.57583458E-03 -1.46519092E-07  2.21496986E-07
  5.07549037E-02 -4.07278150E-02 -8.31917833E-02  1.30228497E-01  2.14828747E-06
 -7.10983343E-01 -2.03466076E-01  2.21367343E-01  3.76072598E-06  3.59679785E-02
  1.78564717E-02  2.87914457E-02  4.69627142E-03  2.74315185E-07 -2.35344201E-07
 -2.88821813E-02 -1.09745580E+00 -2.88839490E-02 -1.09746634E+00 -2.50185154E-02
 -1.05535653E+00  6.04141891E-02  5.15902472E-01 -1.35572426E-02  1.16237329E-02
 -1.28881685E-01 -4.05745103E-01 -5.85293834E-05  1.03032036E-01 -4.93228106E-01
 -1.22339832E+00 -1.61780746E-04 -1.18180134E-02  1.93137553E-02 -7.88284478E-03
  9.23920329E-03  4.09169133E-08 -2.31794384E-06  1.04538499E-02 -1.86793473E-02
 -1.45471349E-01  3.18364381E-02  1.00643853E-05 -1.49300721E-01 -2.46949661E-01
  1.14550760E-01  2.42285427E-05 -4.16355733E-03  5.73580342E-03 -1.24428490E-04
 -1.03396236E-02 -1.61697395E-06 -2.19075343E-06 -4.20182563E-02 -7.16809013E-01
 -4.19961521E-02 -7.16429657E-01  1.15348752E-01  1.75522440E+00 -4.58692383E-02
 -2.88477196E-01  1.15215205E-06 -1.73101136E-06  1.43155273E-05  5.41682458E-05
 -4.61023046E-01 -6.19068166E-06  4.76401356E-05  1.69681277E-04 -1.31884474E+00
  1.17592322E-06 -2.07721788E-06  1.22288660E-06 -9.25633859E-07 -3.99990324E-04
 -1.48895318E-02  2.95828122E-07  8.38893288E-07  1.36678266E-05 -2.79809661E-06
  1.04879812E-01 -6.84807010E-06  1.82521586E-05 -1.29633590E-05  2.37902734E-01
  1.18816351E-06  2.63194741E-08  6.48685859E-07  1.52129450E-06 -1.11374892E-02
 -1.33584482E-02 -7.22877219E-02 -1.51968176E+00  7.22985802E-02  1.51989018E+00
 -1.18535511E-05 -2.41910354E-04  4.64334175E-06  4.70091297E-05  5.99416719E-02
 -8.83899759E-02  2.98759571E-01 -1.34294728E-01 -3.79374774E-06 -7.25184160E-01
  1.27524723E+00 -6.02732339E-01 -3.15296105E-06  2.73307034E-02 -8.75795412E-03
 -2.64651291E-02 -8.69828883E-03  3.48263365E-07 -6.55712649E-08 -4.75351537E-02
  5.69211269E-02  3.78359061E-01  1.45147168E-01  8.48782546E-06  6.69005304E-01
  8.44600984E-01  2.81397304E-01  1.70504127E-05 -4.70649035E-03 -2.29173118E-02
 -2.42731030E-02 -1.28642865E-02 -3.48131301E-07 -4.77031106E-07 -6.19471622E-02
 -4.38066469E-01 -6.19441234E-02 -4.38034893E-01 -1.79007547E-02  5.10703239E-01
  6.08432339E-02  8.66565670E-01 -3.34281825E-02  3.66132222E-01 -9.22597887E-01
  2.14723023E-01 -8.70362606E-06 -4.52022758E-01  1.40711422E+00 -4.49894514E-01
  1.95376389E-05 -5.39694062E-02  3.96350595E-02 -4.77912033E-03  2.58541706E-02
 -4.78164051E-07  5.97273071E-07  6.14802755E-03 -1.61974503E-01 -2.89141861E-01
  8.26632890E-02 -3.15848793E-06  8.06757298E-01  2.21245538E-01  3.52599272E-03
  3.46745742E-07  1.13977480E-01 -8.95770180E-02 -8.37777363E-02 -1.01276421E-02
  2.03947173E-06 -4.00328474E-07 -1.57008496E-01 -1.13390116E-01 -1.57012160E-01
 -1.13397789E-01  3.52552653E-02 -4.04768691E-03 -9.70662315E-02  2.38199233E-01
 -9.64027981E-03  9.70405552E-02 -3.12441875E-01 -7.20203361E-01 -1.01498353E-04
 -4.43831228E-02  4.81035716E-01  1.64092086E+00  2.17736591E-04  5.40866668E-03
 -8.02795372E-02  8.68548159E-02 -4.27144510E-02 -3.95038516E-06  1.51430458E-05
  1.60926534E-02 -1.81302756E-01  4.11287358E-02 -3.67318597E-02 -2.32503717E-05
  2.31977562E-01 -3.97485783E-02 -1.80593865E-01 -2.19720273E-05 -1.81071169E-02
 -5.27886285E-02 -5.35863678E-02  7.71548388E-03  2.83507544E-07  3.65033359E-06
  1.87733842E-01  1.58583039E-01  1.87624811E-01  1.58503460E-01 -4.75429070E-01
 -4.48109708E-01  1.04204679E-01  1.90680168E-01  9.81628621E-07 -2.24423253E-05
  5.07487955E-05  9.50553243E-05 -7.36607886E-01  2.30235077E-05 -7.94366910E-05
 -2.33694875E-04  1.73341141E+00 -7.09857424E-07  1.07709069E-05 -1.32011742E-05
  5.44077426E-06 -2.81780287E-02  1.05088956E-01 -1.92000441E-06  2.23946541E-05
 -2.27365636E-06  7.37093642E-06 -2.31778697E-01 -3.28638423E-05  5.57571455E-06
  2.58231890E-05 -1.65263494E-01  8.03777362E-07  7.47980014E-06  6.86229446E-06
 -1.11267918E-06 -3.49834299E-03  1.90153198E-02  3.97876024E-01  4.07589700E-01
 -3.97933781E-01 -4.07647582E-01  5.99520316E-05  7.96576581E-05 -1.07403263E-05
 -2.81688467E-05  4.04545357E-03  1.35321693E-02 -7.09912801E-02  4.71779719E-01
  1.35207767E-05 -2.12343482E-01  1.12116668E-02 -9.55658884E-01 -2.79859491E-05
 -1.00063765E-01  1.92488558E-03  6.45244250E-02 -1.21704539E-01 -5.05920919E-06
  2.74435824E-06  2.14501147E-02 -1.74741888E-02 -1.31990068E-01  3.18568419E-01
  7.67764514E-06  5.12644492E-02  3.77999756E-01  1.11299667E-01  7.59095786E-06
  3.38488224E-02  1.14205761E-01 -6.15329493E-02  1.30444734E-01  4.84335410E-06
  6.08365410E-06  3.40846526E-01 -5.14804822E-01  3.40819302E-01 -5.14741362E-01
 -2.97781757E-01  9.79222757E-01  8.89104346E-01 -6.39552493E-01  1.07757394E-06
  1.37674170E-05  4.30084226E-06 -2.28894324E-05 -8.30687235E-01 -5.31820262E-05
 -9.90465650E-06  3.52492977E-05  1.43378832E+00 -7.03926519E-06  6.52459002E-06
  1.68030693E-07  1.89247541E-06  1.30292573E-01 -1.36362726E-01  5.34770301E-07
  1.27806705E-05 -1.55895742E-05  3.06638892E-05  2.20743651E-01 -1.35190392E-05
  3.38369400E-05 -2.12013811E-05 -3.24540367E-01  6.48530323E-06  1.00772424E-05
  7.81339542E-07  2.19347600E-06 -8.61510881E-02  2.13750169E-02 -6.77339596E-01
  1.45530110E+00  6.77337600E-01 -1.45524244E+00  2.86887148E-05 -3.22464177E-05
  3.36963079E-05 -2.22229665E-05 -1.77321998E-02  8.31081063E-03  3.74878630E-02
  6.39057260E-01 -4.24593550E-05  2.78263234E-01 -3.46182422E-02 -1.13873692E+00
  7.26526803E-05  7.18566434E-02 -1.14852928E-01  5.98546546E-02 -8.65560010E-02
  8.97767124E-06 -6.05761568E-06 -3.23094807E-03 -2.12608854E-01  1.47044965E-01
 -5.67289288E-01  6.26403111E-06  2.98990430E-01 -3.43141092E-01  5.57535643E-01
 -1.59465026E-05 -6.36673957E-02 -1.40313969E-01 -5.24912259E-02  9.27307065E-03
 -6.66177645E-06 -2.49803185E-06  1.15821027E-01 -6.11708430E-01  1.15889032E-01
 -6.11850737E-01 -7.37783668E-01  1.28730326E+00 -3.21156241E-01  2.06718718E-01
 -9.46650596E-02  3.94922177E-01  3.61484069E-01 -8.88371811E-02  1.01942196E-05
 -6.91636120E-01 -9.78214073E-02  3.80518418E-02 -1.95191642E-05  8.86778980E-03
 -7.03250214E-04 -6.35617417E-02  1.38179630E-02  2.22980612E-07  2.75980899E-06
  9.92116378E-04 -4.29756576E-01 -2.48627692E-01  8.11266496E-02  1.00944299E-05
  8.35859195E-01  3.60791010E-01 -2.44011668E-02 -5.69953559E-06 -1.52003788E-01
 -5.72795728E-02 -1.26768752E-01  1.15260696E-02  8.66936059E-07  2.63482570E-06
 -7.30228335E-01  6.17705838E-01 -7.30232299E-01  6.17732524E-01 -5.40229555E-01
  3.25007572E-01  3.06432236E-01 -4.50691994E-01 -1.18338944E-02 -8.76750333E-01
 -2.65504515E-01 -9.92840694E-02 -2.07660999E-06  2.24528746E+00  3.36615678E-01
 -1.89800842E-01 -1.55161013E-05  9.39061974E-03  5.62776030E-02 -1.56328258E-01
  4.15253507E-03  5.19818266E-07 -5.71763327E-06 -1.77269182E-04 -7.91783783E-01
  4.05395038E-01 -1.82229205E-01 -1.44911214E-05  1.31824739E+00 -5.93696478E-01
  3.85617602E-01  2.22415101E-05 -3.00762401E-01 -1.40900717E-01 -2.79491406E-01
  1.72478297E-02 -2.98034453E-07  3.90767954E-06 -1.05490463E-01 -4.33618222E-01
 -1.05468118E-01 -4.33638019E-01  3.86998280E-01 -9.00389503E-01  5.18590611E-01
 -8.34336003E-01  8.03647146E-07  6.52923787E-05  1.12214610E-05  2.25123389E-06
 -1.32278573E-02 -1.50148115E-04 -1.83231568E-05  1.80600153E-05 -5.62419387E-01
  5.68301829E-06 -2.69571802E-06  6.68759298E-06 -2.38332626E-06  1.70983204E-02
 -1.28620741E-01  9.78569688E-08 -4.24159340E-07  1.46619262E-05  2.86564675E-05
 -9.05723783E-01  1.13255190E-05 -1.50872200E-05 -3.84600978E-05  1.19415610E+00
  4.73227199E-06 -1.35082578E-06 -3.55548147E-06  3.87876859E-06 -7.92646294E-02
 -3.01331843E-02 -2.30355087E-01  1.42047296E-02  2.30352912E-01 -1.41214852E-02
 -1.97290191E-05  4.57071353E-05  2.14206372E-06 -1.70409376E-06 -6.58946955E-02
 -1.64929117E+00 -1.23718092E-01  3.76883037E-02  1.25712793E-06  3.72056297E+00
  7.41807977E-01  9.42507642E-02 -2.59548954E-05 -1.99288258E-01 -1.16852478E-01
 -1.74477423E-03  3.94995309E-02  2.89482900E-06 -3.16912954E-06 -9.98189433E-03
 -4.62393773E-03 -5.05278172E-01 -8.99566193E-03 -2.82659588E-05 -2.18059529E-01
  6.09918035E-01 -7.93535358E-02  3.94868076E-05 -1.13013532E-01  1.08496277E-02
  1.03522923E-01 -3.70782908E-02 -7.95574368E-06 -3.26723957E-06 -1.74845134E-02
 -1.03594028E+00 -1.74627625E-02 -1.03594065E+00 -2.02875624E-01 -9.51728899E-01
 -2.57819293E-01  3.35237182E-01  1.94739665E-02  4.06928770E-01 -3.06912941E-02
 -2.55189146E-01  6.41036664E-07 -1.27735498E+00  3.07222887E-01 -2.08120569E-02
 -1.76130770E-05 -8.96860608E-02  1.95601650E-01 -9.43235398E-02 -7.81251272E-02
 -4.38007189E-06 -2.92002674E-06  1.65200122E-02  4.24229180E-01 -4.03954842E-01
 -7.07284566E-01 -2.77163441E-05 -8.42293382E-01  1.01537365E+00  1.32198290E+00
  5.44677919E-05  1.27044288E-01  2.04715685E-01  2.73221536E-02  4.29603828E-02
  2.60950520E-06  4.56126894E-06  1.75053846E-02  2.45702798E-01  1.75075415E-02
  2.45725310E-01  3.35178031E-01 -1.90789402E-01  2.61119390E-01  1.00581532E+00
 -7.16647005E-02 -9.53370495E-01 -1.50017729E-01 -9.03558885E-02  6.70482553E-06
  3.83479469E+00 -8.84604548E-01  2.20894440E-01 -2.88654107E-05  9.77604632E-02
  9.16010883E-02 -2.27707237E-01 -2.97537578E-01  2.20032692E-05  1.02133537E-05
  8.14804634E-02  1.18396598E+00  2.98737369E-01  2.14056715E-03  1.58192263E-06
 -3.53381140E+00 -1.41152031E+00  6.49178069E-02 -3.72484522E-07  5.79127847E-01
  2.34415197E-01  1.73254820E-01  3.00949988E-01 -1.06099176E-05  8.21017345E-06
 -3.66586114E-01 -3.58341049E-01 -3.66586415E-01 -3.58322697E-01 -2.56117031E-01
 -5.62530973E-01  7.50752588E-02 -3.72979617E-02  2.72798244E-06  3.67160024E-05
  1.06236158E-06  2.76361277E-06  1.70676072E-01 -1.27736799E-04  2.05591348E-05
 -5.36581212E-06 -1.12277315E-01 -1.01436487E-05  4.18332021E-06  8.35706864E-06
  1.38734686E-05  6.34914563E-01  3.81809993E-01 -1.78367680E-06 -2.58156616E-05
 -5.61317888E-06 -1.41934880E-06  8.10671030E-03  8.23114342E-05  3.55375821E-05
  7.52589282E-06  1.31093053E-01 -9.39703303E-06  7.22830068E-06 -1.87791868E-05
 -1.63425195E-05 -5.10700401E-01  1.62135235E-01  1.24931587E-01 -1.41480221E-01
 -1.24904068E-01  1.41511997E-01  1.13302163E-05  1.82764409E-05  4.87541261E-06
  3.86200149E-06  3.11107735E-02  3.23431107E-01  1.21554362E-01 -8.18657505E-02
  3.00611327E-06 -1.65693318E+00  4.53134314E-01 -8.95777023E-02  2.91857136E-05
 -1.51694924E-01  2.90241508E-01 -1.33509298E-01 -4.88206594E-01  1.30019661E-05
 -6.54884359E-07 -5.55986565E-02 -7.73419287E-01 -1.24788323E-01  7.06078115E-02
  4.81035640E-06  2.24390965E+00  5.90015109E-01 -5.33199572E-01 -1.50193868E-05
 -2.23474389E-01 -5.69787302E-01  1.82083253E-01  4.21211944E-01 -1.75694248E-05
 -2.64163964E-05  6.81779651E-02  1.59105467E-01  6.81579362E-02  1.59088571E-01
  2.43647705E-01  2.00127613E-01 -3.56404442E-01 -1.70073580E-01  2.28133510E-07
  2.20529071E-06  5.58698960E-07 -4.83405220E-07 -2.38173885E-02 -1.23337625E-05