co pbe0                                                                 
SP        RTD-PBE1PBE-FC                                              6-311++G(d,p)       
Number of atoms                            I                2
Info1-9                                    I   N=           9
           9           9           0           0           0         110
           1         218        -301
Charge                                     I                0
Multiplicity                               I                1
Number of electrons                        I               14
Number of alpha electrons                  I                7
Number of beta electrons                   I                7
Number of basis functions                  I               44
Number of independent functions            I               44
Number of point charges in /Mol/           I                0
Number of translation vectors              I                0
Atomic numbers                             I   N=           2
           6           8
Nuclear charges                            R   N=           2
  6.00000000E+00  8.00000000E+00
Current cartesian coordinates              R   N=           6
  0.00000000E+00  0.00000000E+00 -1.21523563E+00  0.00000000E+00  0.00000000E+00
  9.11426252E-01
Force Field                                I                0
Int Atom Types                             I   N=           2
           0           0
MM charges                                 R   N=           2
  0.00000000E+00  0.00000000E+00
Integer atomic weights                     I   N=           2
          12          16
Real atomic weights                        R   N=           2
  1.20000000E+01  1.59949146E+01
Atom fragment info                         I   N=           2
           0           0
Atom residue num                           I   N=           2
           0           0
Nuclear spins                              I   N=           2
           0           0
Nuclear ZEff                               R   N=           2
 -3.60000000E+00 -5.60000000E+00
Nuclear QMom                               R   N=           2
  0.00000000E+00  0.00000000E+00
Nuclear GFac                               R   N=           2
  0.00000000E+00  0.00000000E+00
MicOpt                                     I   N=           2
          -1          -1
Number of contracted shells                I               12
Number of primitive shells                 I               26
Pure/Cartesian d shells                    I                0
Pure/Cartesian f shells                    I                0
Highest angular momentum                   I                2
Largest degree of contraction              I                6
Shell types                                I   N=          12
           0          -1          -1          -1          -1          -2
           0          -1          -1          -1          -1          -2
Number of primitives per shell             I   N=          12
           6           3           1           1           1           1
           6           3           1           1           1           1
Shell to atom map                          I   N=          12
           1           1           1           1           1           1
           2           2           2           2           2           2
Primitive exponents                        R   N=          26
  4.56324000E+03  6.82024000E+02  1.54973000E+02  4.44553000E+01  1.30290000E+01
  1.82773000E+00  2.09642000E+01  4.80331000E+00  1.45933000E+00  4.83456000E-01
  1.45585000E-01  4.38000000E-02  6.26000000E-01  8.58850000E+03  1.29723000E+03
  2.99296000E+02  8.73771000E+01  2.56789000E+01  3.74004000E+00  4.21175000E+01
  9.62837000E+00  2.85332000E+00  9.05661000E-01  2.55611000E-01  8.45000000E-02
  1.29200000E+00
Contraction coefficients                   R   N=          26
  1.96665025E-03  1.52306019E-02  7.61269097E-02  2.60801033E-01  6.16462078E-01
  2.21006028E-01  1.14660081E-01  9.19999648E-01 -3.03068213E-03  1.00000000E+00
  1.00000000E+00  1.00000000E+00  1.00000000E+00  1.89515008E-03  1.43859006E-02
  7.07320031E-02  2.40001011E-01  5.94797026E-01  2.80802012E-01  1.13889012E-01
  9.20811101E-01 -3.27447036E-03  1.00000000E+00  1.00000000E+00  1.00000000E+00
  1.00000000E+00
P(S=P) Contraction coefficients            R   N=          26
  0.00000000E+00  0.00000000E+00  0.00000000E+00  0.00000000E+00  0.00000000E+00
  0.00000000E+00  4.02486927E-02  2.37593957E-01  8.15853851E-01  1.00000000E+00
  1.00000000E+00  1.00000000E+00  0.00000000E+00  0.00000000E+00  0.00000000E+00
  0.00000000E+00  0.00000000E+00  0.00000000E+00  0.00000000E+00  3.65113974E-02
  2.37152983E-01  8.19701941E-01  1.00000000E+00  1.00000000E+00  1.00000000E+00
  0.00000000E+00
Coordinates of each shell                  R   N=          36
  0.00000000E+00  0.00000000E+00 -1.21523536E+00  0.00000000E+00  0.00000000E+00
 -1.21523536E+00  0.00000000E+00  0.00000000E+00 -1.21523536E+00  0.00000000E+00
  0.00000000E+00 -1.21523536E+00  0.00000000E+00  0.00000000E+00 -1.21523536E+00
  0.00000000E+00  0.00000000E+00 -1.21523536E+00  0.00000000E+00  0.00000000E+00
  9.11426522E-01  0.00000000E+00  0.00000000E+00  9.11426522E-01  0.00000000E+00
  0.00000000E+00  9.11426522E-01  0.00000000E+00  0.00000000E+00  9.11426522E-01
  0.00000000E+00  0.00000000E+00  9.11426522E-01  0.00000000E+00  0.00000000E+00
  9.11426522E-01
Constraint Structure                       R   N=           6
  0.00000000E+00  0.00000000E+00 -1.21523536E+00  0.00000000E+00  0.00000000E+00
  9.11426522E-01
Num ILSW                                   I              100
ILSW                                       I   N=         100
           0           0           0           0           2           0
           0           0           0           0        1009          -1
           0           0           0           0           0           0
           0           0           0           0           0           0
           1           0           0           0           0           0
           0           0      100000           0          -1           0
           0           0           0           0           0           0
           0           0           0           1           0           0
           0           0           1           0           0           0
           0           0           4          40           0           0
           0           0          13           0           0           0
           0           0           0           0           0           0
           0           0           0           0           0           0
           0           0           0           0           0           0
           0           0           0           0           0           0
           0           0           0           0           0           0
           0           0           0           0
Num RLSW                                   I               40
RLSW                                       R   N=          40
  7.50000000E-01  7.50000000E-01  1.00000000E+00  1.00000000E+00  2.50000000E-01
  0.00000000E+00  0.00000000E+00  1.00000000E+00  0.00000000E+00  0.00000000E+00
  0.00000000E+00  0.00000000E+00  1.00000000E+00  0.00000000E+00  0.00000000E+00
  0.00000000E+00  0.00000000E+00  1.00000000E+00  0.00000000E+00  0.00000000E+00
  0.00000000E+00  0.00000000E+00  1.00000000E+00  0.00000000E+00  0.00000000E+00
  0.00000000E+00  0.00000000E+00  1.00000000E+00  0.00000000E+00  0.00000000E+00
  0.00000000E+00  0.00000000E+00  0.00000000E+00  0.00000000E+00  0.00000000E+00
  0.00000000E+00  0.00000000E+00  0.00000000E+00  1.00000000E+00  1.00000000E+00
MxBond                                     I                1
NBond                                      I   N=           2
           1           1
IBond                                      I   N=           2
           2           1
RBond                                      R   N=           2
  2.00000000E+00  2.00000000E+00
Virial Ratio                               R      2.002574604408971E+00
SCF Energy                                 R     -1.132171335086168E+02
CIS Energy                                 R     -1.130053988726134E+02
Total Energy                               R     -1.130053988726134E+02
Post-SCF wavefunction norm                 R      1.000000000000000E+00
RMS Density                                R      8.551984096628211E-09
External E-field                           R   N=          35
  0.00000000E+00  0.00000000E+00  0.00000000E+00  0.00000000E+00  0.00000000E+00
  0.00000000E+00  0.00000000E+00  0.00000000E+00  0.00000000E+00  0.00000000E+00
  0.00000000E+00  0.00000000E+00  0.00000000E+00  0.00000000E+00  0.00000000E+00
  0.00000000E+00  0.00000000E+00  0.00000000E+00  0.00000000E+00  0.00000000E+00
  0.00000000E+00  0.00000000E+00  0.00000000E+00  0.00000000E+00  0.00000000E+00
  0.00000000E+00  0.00000000E+00  0.00000000E+00  0.00000000E+00  0.00000000E+00
  0.00000000E+00  0.00000000E+00  0.00000000E+00  0.00000000E+00  0.00000000E+00
IOpCl                                      I                0
IROHF                                      I                0
Alpha Orbital Energies                     R   N=          44
 -1.93148727E+01 -1.03434001E+01 -1.20536914E+00 -6.01808164E-01 -4.98604010E-01
 -4.98604010E-01 -3.95432044E-01 -2.86832469E-02 -2.86832469E-02  3.88594799E-02
  6.93810366E-02  7.99606546E-02  7.99606546E-02  1.89705772E-01  2.20199854E-01
  2.20199854E-01  2.73560249E-01  4.06447451E-01  5.41345480E-01  5.41345480E-01
  6.70306215E-01  8.65689336E-01  1.03264102E+00  1.03467760E+00  1.03467760E+00
  1.25916926E+00  1.25917907E+00  1.39446870E+00  1.41931285E+00  1.41931285E+00
  2.06291470E+00  2.65319680E+00  2.65319680E+00  2.78001022E+00  2.78001130E+00
  3.02822806E+00  3.36088274E+00  3.36088274E+00  3.68243836E+00  4.95263811E+00
  4.95263811E+00  5.61054865E+00  2.39060461E+01  4.99729055E+01
Alpha MO coefficients                      R   N=        1936
 -6.62705540E-05  2.92096637E-04  0.00000000E+00  0.00000000E+00  2.19699016E-04
 -3.63017091E-04  0.00000000E+00  0.00000000E+00 -1.61687777E-03 -3.17059355E-04
  0.00000000E+00  0.00000000E+00  8.73186393E-04 -1.70190912E-03  0.00000000E+00
  0.00000000E+00 -1.08927611E-03 -1.27053692E-03  0.00000000E+00  0.00000000E+00
  7.35100169E-17  0.00000000E+00  5.51613713E-01  4.69671720E-01  0.00000000E+00
  0.00000000E+00 -1.04042367E-03  1.26869744E-02  0.00000000E+00  0.00000000E+00
 -1.10229796E-03 -5.87532340E-03  0.00000000E+00  0.00000000E+00  1.44702361E-04
  4.26706641E-03  0.00000000E+00  0.00000000E+00 -2.09106895E-04  5.49583178E-04
  0.00000000E+00  0.00000000E+00  9.57830431E-17  0.00000000E+00  5.63075648E-01
  4.63827058E-01  0.00000000E+00  0.00000000E+00  2.11186588E-03  1.63273146E-02
  0.00000000E+00  0.00000000E+00  3.94892008E-03 -8.62091214E-03  0.00000000E+00
  0.00000000E+00 -6.60984860E-04 -2.04652305E-03  0.00000000E+00  0.00000000E+00
 -9.57097899E-04  2.59564099E-03  0.00000000E+00  0.00000000E+00 -3.97250432E-16
  0.00000000E+00 -2.11691758E-04 -1.03495046E-04  0.00000000E+00  0.00000000E+00
 -7.27009134E-04 -3.62689779E-04  0.00000000E+00  0.00000000E+00  2.59514762E-03
 -5.67698921E-03  0.00000000E+00  0.00000000E+00  2.49910169E-03  8.41089339E-03
  0.00000000E+00  0.00000000E+00 -3.46883772E-03 -1.10132780E-03  0.00000000E+00
  0.00000000E+00 -8.34242154E-17  0.00000000E+00 -6.45734200E-02 -9.69759602E-02
  0.00000000E+00  0.00000000E+00  1.07868041E-01  2.46682415E-01  0.00000000E+00
  0.00000000E+00  1.26464584E-01  4.87730454E-02  0.00000000E+00  0.00000000E+00
  1.80299263E-03  1.81252880E-02  0.00000000E+00  0.00000000E+00  1.12598753E-02
  3.25188326E-02  0.00000000E+00  0.00000000E+00 -4.98716236E-16  0.00000000E+00
 -1.10209317E-01 -1.77533285E-01  0.00000000E+00  0.00000000E+00 -8.50615477E-02
  5.07851651E-01  0.00000000E+00  0.00000000E+00 -1.20751272E-01  3.18772845E-01
  0.00000000E+00  0.00000000E+00 -3.17206052E-02 -4.34711758E-02  0.00000000E+00
  0.00000000E+00  2.76269505E-03  1.88702404E-02  0.00000000E+00  0.00000000E+00
  3.77069144E-16  0.00000000E+00  7.41973214E-02  1.17849806E-01  0.00000000E+00
  0.00000000E+00 -5.97186271E-02 -3.48452584E-01  0.00000000E+00  0.00000000E+00
 -8.34518100E-02 -2.52575258E-01  0.00000000E+00  0.00000000E+00 -2.56097604E-02
 -1.05926910E-03  0.00000000E+00  0.00000000E+00  6.45775194E-03 -1.28884456E-02
  0.00000000E+00  0.00000000E+00  2.82611532E-16  0.00000000E+00 -6.26479817E-02
 -1.02764397E-01  0.00000000E+00  0.00000000E+00  2.30731563E-01  3.14925295E-01
  0.00000000E+00  0.00000000E+00  3.28992012E-01  4.20653297E-01  0.00000000E+00
  0.00000000E+00  1.81990421E-01  7.26293655E-02  0.00000000E+00  0.00000000E+00
 -5.91513018E-03 -2.02993904E-02  0.00000000E+00  0.00000000E+00  5.39220722E-16
  0.00000000E+00  0.00000000E+00  0.00000000E+00  1.44815762E-01  0.00000000E+00
  0.00000000E+00  0.00000000E+00  2.27349445E-01  0.00000000E+00  0.00000000E+00
  0.00000000E+00  1.07105915E-01  0.00000000E+00  0.00000000E+00  0.00000000E+00
  6.60434374E-03  0.00000000E+00  0.00000000E+00  0.00000000E+00  5.46509650E-02
  0.00000000E+00  0.00000000E+00  0.00000000E+00  0.00000000E+00  0.00000000E+00
  2.57017296E-01  0.00000000E+00  0.00000000E+00  0.00000000E+00  3.86071447E-01
  0.00000000E+00  0.00000000E+00  0.00000000E+00  2.97935441E-01  0.00000000E+00
  0.00000000E+00  0.00000000E+00  1.57471630E-02  0.00000000E+00  0.00000000E+00
  0.00000000E+00 -2.55674828E-02  0.00000000E+00  0.00000000E+00  0.00000000E+00
  0.00000000E+00  0.00000000E+00  0.00000000E+00  1.44815762E-01  0.00000000E+00
  0.00000000E+00  0.00000000E+00  2.27349445E-01  0.00000000E+00  0.00000000E+00
  0.00000000E+00  1.07105915E-01  0.00000000E+00  0.00000000E+00  0.00000000E+00
  6.60434374E-03  0.00000000E+00  0.00000000E+00  0.00000000E+00  5.46509650E-02
  0.00000000E+00  0.00000000E+00  0.00000000E+00  0.00000000E+00  0.00000000E+00
  2.57017296E-01  0.00000000E+00  0.00000000E+00  0.00000000E+00  3.86071447E-01
  0.00000000E+00  0.00000000E+00  0.00000000E+00  2.97935441E-01  0.00000000E+00
  0.00000000E+00  0.00000000E+00  1.57471630E-02  0.00000000E+00  0.00000000E+00
  0.00000000E+00 -2.55674828E-02  0.00000000E+00  0.00000000E+00 -7.63988745E-02
 -1.25622093E-01  0.00000000E+00  0.00000000E+00 -2.06781477E-01  3.52891990E-01
  0.00000000E+00  0.00000000E+00 -2.85341075E-01  5.62867726E-01  0.00000000E+00
  0.00000000E+00 -1.26519540E-01  7.05601617E-02  0.00000000E+00  0.00000000E+00
 -1.18615736E-03 -3.32295539E-02  0.00000000E+00  0.00000000E+00  1.11410041E-15
  0.00000000E+00  8.23136168E-03  1.38359956E-02  0.00000000E+00  0.00000000E+00
  1.29447951E-01 -4.51360148E-02  0.00000000E+00  0.00000000E+00  1.83989276E-01
 -2.60940335E-02  0.00000000E+00  0.00000000E+00  1.31097099E-01 -3.86815658E-02
  0.00000000E+00  0.00000000E+00  3.59630101E-02 -1.22479607E-02  0.00000000E+00
  0.00000000E+00 -2.23486751E-16  0.00000000E+00  0.00000000E+00  0.00000000E+00
  0.00000000E+00  2.23597490E-01  0.00000000E+00  0.00000000E+00  0.00000000E+00
  3.65535885E-01  0.00000000E+00  0.00000000E+00  0.00000000E+00  5.52165147E-01
  0.00000000E+00  0.00000000E+00  0.00000000E+00  3.60363515E-01  0.00000000E+00
  0.00000000E+00  0.00000000E+00 -1.66836872E-02  0.00000000E+00  0.00000000E+00
  0.00000000E+00  0.00000000E+00  0.00000000E+00 -1.77576100E-01  0.00000000E+00
  0.00000000E+00  0.00000000E+00 -2.70612048E-01  0.00000000E+00  0.00000000E+00
  0.00000000E+00 -3.29453815E-01  0.00000000E+00  0.00000000E+00  0.00000000E+00
 -2.92193414E-01  0.00000000E+00  0.00000000E+00  0.00000000E+00 -1.28001961E-02
  0.00000000E+00  0.00000000E+00  0.00000000E+00  0.00000000E+00  2.23597490E-01
  0.00000000E+00  0.00000000E+00  0.00000000E+00  3.65535885E-01  0.00000000E+00
  0.00000000E+00  0.00000000E+00  5.52165147E-01  0.00000000E+00  0.00000000E+00
  0.00000000E+00  3.60363515E-01  0.00000000E+00  0.00000000E+00  0.00000000E+00
 -1.66836872E-02  0.00000000E+00  0.00000000E+00  0.00000000E+00  0.00000000E+00
  0.00000000E+00 -1.77576100E-01  0.00000000E+00  0.00000000E+00  0.00000000E+00
 -2.70612048E-01  0.00000000E+00  0.00000000E+00  0.00000000E+00 -3.29453815E-01
  0.00000000E+00  0.00000000E+00  0.00000000E+00 -2.92193414E-01  0.00000000E+00
  0.00000000E+00  0.00000000E+00 -1.28001961E-02  0.00000000E+00  0.00000000E+00
  0.00000000E+00  2.13476098E-02  3.74130167E-02  0.00000000E+00  0.00000000E+00
  5.42137599E-02 -1.61930511E-01  0.00000000E+00  0.00000000E+00  5.27078218E-02
  3.66491604E-01  0.00000000E+00  0.00000000E+00  4.77956132E-01  2.31699560E+00
  0.00000000E+00  0.00000000E+00  7.41900900E-01 -4.66512227E-03  0.00000000E+00
  0.00000000E+00 -2.33202622E-15  0.00000000E+00  1.91029568E-02  3.25802261E-02
  0.00000000E+00  0.00000000E+00 -2.91328018E-02 -1.24159673E-01  0.00000000E+00
  0.00000000E+00 -4.86449791E-02 -1.91591005E-01  0.00000000E+00  0.00000000E+00
  2.64184295E-02 -1.97302986E+00  0.00000000E+00  0.00000000E+00  4.79699744E-01
 -1.06764513E-05  0.00000000E+00  0.00000000E+00 -5.77390773E-16  0.00000000E+00
 -2.53435885E-02 -4.19841852E-02  0.00000000E+00  0.00000000E+00 -3.94267633E-02
  1.24134832E-01  0.00000000E+00  0.00000000E+00 -1.27006545E-02  3.34574651E-01
  0.00000000E+00  0.00000000E+00 -2.16072706E-01 -3.74158057E-01  0.00000000E+00
  0.00000000E+00  1.24874571E+00 -2.14927965E-02  0.00000000E+00  0.00000000E+00
 -7.63143886E-18  0.00000000E+00  1.46954807E-02  2.52616204E-02  0.00000000E+00
  0.00000000E+00  7.05459216E-03 -9.72173451E-02  0.00000000E+00  0.00000000E+00
  1.23987909E-02 -5.37295765E-02  0.00000000E+00  0.00000000E+00  1.65407503E-02
 -2.55857602E-01  0.00000000E+00  0.00000000E+00 -1.74645599E-01 -8.76493028E-04
  0.00000000E+00  0.00000000E+00 -1.71816220E-16  0.00000000E+00  0.00000000E+00
  0.00000000E+00  0.00000000E+00 -1.40699035E-01  0.00000000E+00  0.00000000E+00
  0.00000000E+00 -1.91639129E-01  0.00000000E+00  0.00000000E+00  0.00000000E+00
 -4.95739659E-01  0.00000000E+00  0.00000000E+00  0.00000000E+00  1.18627216E+00
  0.00000000E+00  0.00000000E+00  0.00000000E+00 -1.70150358E-02  0.00000000E+00
  0.00000000E+00  0.00000000E+00  0.00000000E+00  0.00000000E+00  2.21291078E-02
  0.00000000E+00  0.00000000E+00  0.00000000E+00  2.24294605E-02  0.00000000E+00
  0.00000000E+00  0.00000000E+00  1.28101012E-01  0.00000000E+00  0.00000000E+00
  0.00000000E+00 -3.15950053E-02  0.00000000E+00  0.00000000E+00  0.00000000E+00
  1.37166945E-02  0.00000000E+00  0.00000000E+00  0.00000000E+00  0.00000000E+00
 -1.40699035E-01  0.00000000E+00  0.00000000E+00  0.00000000E+00 -1.91639129E-01
  0.00000000E+00  0.00000000E+00  0.00000000E+00 -4.95739659E-01  0.00000000E+00
  0.00000000E+00  0.00000000E+00  1.18627216E+00  0.00000000E+00  0.00000000E+00
  0.00000000E+00 -1.70150358E-02  0.00000000E+00  0.00000000E+00  0.00000000E+00
  0.00000000E+00  0.00000000E+00  2.21291078E-02  0.00000000E+00  0.00000000E+00
  0.00000000E+00  2.24294605E-02  0.00000000E+00  0.00000000E+00  0.00000000E+00
  1.28101012E-01  0.00000000E+00  0.00000000E+00  0.00000000E+00 -3.15950053E-02
  0.00000000E+00  0.00000000E+00  0.00000000E+00  1.37166945E-02  0.00000000E+00
  0.00000000E+00  0.00000000E+00 -2.13516142E-02 -3.12802838E-02  0.00000000E+00
  0.00000000E+00  4.34130681E-03  7.51509461E-03  0.00000000E+00  0.00000000E+00
  2.44554340E-02  1.89579884E+00  0.00000000E+00  0.00000000E+00  8.57491578E-02
  2.42059561E-01  0.00000000E+00  0.00000000E+00 -5.60535217E-01  4.29219425E-02
  0.00000000E+00  0.00000000E+00  1.38955577E-16  0.00000000E+00  5.28280636E-03
  8.74313138E-03  0.00000000E+00  0.00000000E+00 -5.94781442E-02 -2.26514066E-02
  0.00000000E+00  0.00000000E+00 -4.56697917E-02 -1.96444332E-01  0.00000000E+00
  0.00000000E+00 -1.56220791E-01 -1.18716786E+00  0.00000000E+00  0.00000000E+00
  2.20689179E+00  1.67770113E-02  0.00000000E+00  0.00000000E+00 -1.01075013E-15
  0.00000000E+00  0.00000000E+00  0.00000000E+00  0.00000000E+00  1.16023167E-02
  0.00000000E+00  0.00000000E+00  0.00000000E+00  8.24841903E-02  0.00000000E+00
  0.00000000E+00  0.00000000E+00 -2.06857380E-01  0.00000000E+00  0.00000000E+00
  0.00000000E+00 -1.13027360E+00  0.00000000E+00  0.00000000E+00  0.00000000E+00
 -3.10715971E-03  0.00000000E+00  0.00000000E+00  0.00000000E+00  0.00000000E+00
  0.00000000E+00 -1.24212579E-01  0.00000000E+00  0.00000000E+00  0.00000000E+00
 -1.37225894E-01  0.00000000E+00  0.00000000E+00  0.00000000E+00 -5.01845239E-01
  0.00000000E+00  0.00000000E+00  0.00000000E+00  1.99400587E+00  0.00000000E+00
  0.00000000E+00  0.00000000E+00  1.38123890E-02  0.00000000E+00  0.00000000E+00
  0.00000000E+00  0.00000000E+00  1.16023167E-02  0.00000000E+00  0.00000000E+00
  0.00000000E+00  8.24841903E-02  0.00000000E+00  0.00000000E+00  0.00000000E+00
 -2.06857380E-01  0.00000000E+00  0.00000000E+00  0.00000000E+00 -1.13027360E+00
  0.00000000E+00  0.00000000E+00  0.00000000E+00 -3.10715971E-03  0.00000000E+00
  0.00000000E+00  0.00000000E+00  0.00000000E+00  0.00000000E+00 -1.24212579E-01
  0.00000000E+00  0.00000000E+00  0.00000000E+00 -1.37225894E-01  0.00000000E+00
  0.00000000E+00  0.00000000E+00 -5.01845239E-01  0.00000000E+00  0.00000000E+00
  0.00000000E+00  1.99400587E+00  0.00000000E+00  0.00000000E+00  0.00000000E+00
  1.38123890E-02  0.00000000E+00  0.00000000E+00  0.00000000E+00  1.27896929E-02
  1.76608290E-02  0.00000000E+00  0.00000000E+00  4.06320285E-02 -3.11990785E-02
  0.00000000E+00  0.00000000E+00  7.98061507E-02 -2.09285333E+00  0.00000000E+00
  0.00000000E+00 -4.03164127E-01 -3.13507166E+00  0.00000000E+00  0.00000000E+00
 -1.58784332E+00 -3.58838838E-02  0.00000000E+00  0.00000000E+00  5.11646460E-15
  0.00000000E+00  4.16566894E-02  6.82409224E-02  0.00000000E+00  0.00000000E+00
 -2.85519118E-02 -1.92652931E-01  0.00000000E+00  0.00000000E+00  1.63363714E-02
 -1.07826224E+00  0.00000000E+00  0.00000000E+00 -3.97536782E-01  6.37258974E+00
  0.00000000E+00  0.00000000E+00 -8.83507498E-01 -8.77142034E-03  0.00000000E+00
  0.00000000E+00  1.75603818E-15  0.00000000E+00  5.00402111E-02  8.84548436E-02
  0.00000000E+00  0.00000000E+00 -1.78279566E-02 -2.45747472E-01  0.00000000E+00
  0.00000000E+00 -8.35162596E-02 -4.91222947E+00  0.00000000E+00  0.00000000E+00
 -3.27318475E+00 -1.81914092E+00  0.00000000E+00  0.00000000E+00  2.42687835E-01
  1.39770979E-02  0.00000000E+00  0.00000000E+00 -1.13944822E-15  0.00000000E+00
 -2.52287469E-02 -4.04851774E-02  0.00000000E+00  0.00000000E+00 -1.24197261E-01
  5.92613438E-02  0.00000000E+00  0.00000000E+00 -1.81881622E-01  2.00743138E+00
  0.00000000E+00  0.00000000E+00 -1.11032362E+00  4.96291248E+00  0.00000000E+00
  0.00000000E+00 -1.69156709E+00  9.69540164E-03  0.00000000E+00  0.00000000E+00
  2.61953490E-15  0.00000000E+00  0.00000000E+00  0.00000000E+00  0.00000000E+00
 -2.46830652E-01  0.00000000E+00  0.00000000E+00  0.00000000E+00 -9.11335004E-01
  0.00000000E+00  0.00000000E+00  0.00000000E+00  1.75801524E+00  0.00000000E+00
  0.00000000E+00  0.00000000E+00 -5.75709687E-01  0.00000000E+00  0.00000000E+00
  0.00000000E+00 -4.17912545E-02  0.00000000E+00  0.00000000E+00  0.00000000E+00
  0.00000000E+00  0.00000000E+00  2.40730128E-02  0.00000000E+00  0.00000000E+00
  0.00000000E+00  6.17795855E-02  0.00000000E+00  0.00000000E+00  0.00000000E+00
 -1.25675499E-01  0.00000000E+00  0.00000000E+00  0.00000000E+00 -2.92175086E-01
  0.00000000E+00  0.00000000E+00  0.00000000E+00  2.07553957E-02  0.00000000E+00
  0.00000000E+00  0.00000000E+00  0.00000000E+00 -2.46830652E-01  0.00000000E+00
  0.00000000E+00  0.00000000E+00 -9.11335004E-01  0.00000000E+00  0.00000000E+00
  0.00000000E+00  1.75801524E+00  0.00000000E+00  0.00000000E+00  0.00000000E+00
 -5.75709687E-01  0.00000000E+00  0.00000000E+00  0.00000000E+00 -4.17912545E-02
  0.00000000E+00  0.00000000E+00  0.00000000E+00  0.00000000E+00  0.00000000E+00
  2.40730128E-02  0.00000000E+00  0.00000000E+00  0.00000000E+00  6.17795855E-02
  0.00000000E+00  0.00000000E+00  0.00000000E+00 -1.25675499E-01  0.00000000E+00
  0.00000000E+00  0.00000000E+00 -2.92175086E-01  0.00000000E+00  0.00000000E+00
  0.00000000E+00  2.07553957E-02  0.00000000E+00  0.00000000E+00  0.00000000E+00
  2.60831411E-02  4.99533403E-02  0.00000000E+00  0.00000000E+00  2.70854965E-01
 -4.35435860E-01  0.00000000E+00  0.00000000E+00  1.19790995E+00  3.93937587E+00
  0.00000000E+00  0.00000000E+00  1.95532395E-01  1.94005192E-01  0.00000000E+00
  0.00000000E+00  5.11951538E-01 -3.20610628E-02  0.00000000E+00  0.00000000E+00
 -1.32685051E-15  0.00000000E+00  2.36942040E-02  4.01985508E-02  0.00000000E+00
  0.00000000E+00  1.09586322E-01 -8.63438511E-02  0.00000000E+00  0.00000000E+00
  2.12977589E-01 -1.30165248E+00  0.00000000E+00  0.00000000E+00  1.34202252E+00
 -2.36488236E+00  0.00000000E+00  0.00000000E+00  5.58459059E-01  1.25435251E-02
  0.00000000E+00  0.00000000E+00 -3.58271190E-15  0.00000000E+00  1.14524661E-01
  2.39682682E-01  0.00000000E+00  0.00000000E+00 -1.57634859E-01 -2.21058102E+00
  0.00000000E+00  0.00000000E+00 -3.18433242E-01  4.65158526E+00  0.00000000E+00
  0.00000000E+00  1.21414397E+00  7.15687476E-01  0.00000000E+00  0.00000000E+00
  3.21706402E-02  7.59974264E-02  0.00000000E+00  0.00000000E+00 -1.28541678E-14
  0.00000000E+00 -2.43875239E-02 -4.09089487E-02  0.00000000E+00  0.00000000E+00
 -3.53772170E-02  1.25947392E-01  0.00000000E+00  0.00000000E+00  1.16348292E-01
 -3.18089703E-01  0.00000000E+00  0.00000000E+00 -8.64175617E-01 -3.36009205E+00
  0.00000000E+00  0.00000000E+00  1.99268782E+00 -9.83212583E-02  0.00000000E+00
  0.00000000E+00 -4.56217492E-15  0.00000000E+00  4.73550705E-02  8.27024353E-02
  0.00000000E+00  0.00000000E+00 -1.75304145E-01 -3.01075258E-01  0.00000000E+00
  0.00000000E+00  2.56654332E-01  5.81213601E+00  0.00000000E+00  0.00000000E+00
  2.66392378E+00  1.16877250E+00  0.00000000E+00  0.00000000E+00  3.00449515E-01
  3.65031779E-01  0.00000000E+00  0.00000000E+00 -1.08452306E-14  0.00000000E+00
 -1.05422977E-02 -2.21195395E-02  0.00000000E+00  0.00000000E+00 -2.75174609E-01
  2.66467013E-01  0.00000000E+00  0.00000000E+00 -6.52592170E-01 -2.60965329E+00
  0.00000000E+00  0.00000000E+00  2.81972583E+00 -4.47914997E+00  0.00000000E+00
  0.00000000E+00  7.04561059E-01 -5.84425976E-02  0.00000000E+00  0.00000000E+00
 -4.13540876E-15  0.00000000E+00  0.00000000E+00  0.00000000E+00  0.00000000E+00
  1.34860521E-02  0.00000000E+00  0.00000000E+00  0.00000000E+00 -1.61269807E-01
  0.00000000E+00  0.00000000E+00  0.00000000E+00 -2.23154381E-01  0.00000000E+00
  0.00000000E+00  0.00000000E+00  5.48549318E-01  0.00000000E+00  0.00000000E+00
  0.00000000E+00 -7.57349314E-02  0.00000000E+00  0.00000000E+00  0.00000000E+00
  0.00000000E+00  0.00000000E+00 -2.52574232E-01  0.00000000E+00  0.00000000E+00
  0.00000000E+00 -8.33432494E-01  0.00000000E+00  0.00000000E+00  0.00000000E+00
  1.94657466E+00  0.00000000E+00  0.00000000E+00  0.00000000E+00 -1.25502932E+00
  0.00000000E+00  0.00000000E+00  0.00000000E+00  2.89776512E-02  0.00000000E+00
  0.00000000E+00  0.00000000E+00  0.00000000E+00  1.34860521E-02  0.00000000E+00
  0.00000000E+00  0.00000000E+00 -1.61269807E-01  0.00000000E+00  0.00000000E+00
  0.00000000E+00 -2.23154381E-01  0.00000000E+00  0.00000000E+00  0.00000000E+00
  5.48549318E-01  0.00000000E+00  0.00000000E+00  0.00000000E+00 -7.57349314E-02
  0.00000000E+00  0.00000000E+00  0.00000000E+00  0.00000000E+00  0.00000000E+00
 -2.52574232E-01  0.00000000E+00  0.00000000E+00  0.00000000E+00 -8.33432494E-01
  0.00000000E+00  0.00000000E+00  0.00000000E+00  1.94657466E+00  0.00000000E+00
  0.00000000E+00  0.00000000E+00 -1.25502932E+00  0.00000000E+00  0.00000000E+00
  0.00000000E+00  2.89776512E-02  0.00000000E+00  0.00000000E+00  0.00000000E+00
  1.51823925E-15  1.95973944E-15  0.00000000E+00  0.00000000E+00 -5.21088046E-15
 -7.23139827E-15  0.00000000E+00  0.00000000E+00  2.28406512E-14  1.77724346E-13
  0.00000000E+00  0.00000000E+00  8.21754524E-14 -9.95928589E-15  0.00000000E+00
  0.00000000E+00 -1.53107536E-14  1.09929934E-14  0.00000000E+00  0.00000000E+00
  9.83784148E-01  0.00000000E+00 -5.45810565E-15 -1.09696463E-14  0.00000000E+00
  0.00000000E+00 -3.64748568E-15  8.72608183E-14  0.00000000E+00  0.00000000E+00
  5.84852935E-15 -2.20187533E-13  0.00000000E+00  0.00000000E+00  4.85522382E-14
 -1.68528327E-14  0.00000000E+00  0.00000000E+00  3.51605775E-14 -4.23486627E-15
  0.00000000E+00  0.00000000E+00  9.72910878E-02  0.00000000E+00  0.00000000E+00
  0.00000000E+00  0.00000000E+00  0.00000000E+00  0.00000000E+00  0.00000000E+00
  0.00000000E+00  0.00000000E+00  0.00000000E+00  0.00000000E+00  0.00000000E+00
  0.00000000E+00  0.00000000E+00  0.00000000E+00  0.00000000E+00  0.00000000E+00
  0.00000000E+00  0.00000000E+00  0.00000000E+00  0.00000000E+00  0.00000000E+00
  9.83783853E-01  0.00000000E+00  0.00000000E+00  0.00000000E+00  0.00000000E+00
  0.00000000E+00  0.00000000E+00  0.00000000E+00  0.00000000E+00  0.00000000E+00
  0.00000000E+00  0.00000000E+00  0.00000000E+00  0.00000000E+00  0.00000000E+00
  0.00000000E+00  0.00000000E+00  0.00000000E+00  0.00000000E+00  0.00000000E+00
  0.00000000E+00  0.00000000E+00  9.72924602E-02  1.26208553E-02  4.65147875E-02
  0.00000000E+00  0.00000000E+00  3.69743519E-02 -5.50565622E-01  0.00000000E+00
  0.00000000E+00 -6.09201030E-01 -1.73963467E+00  0.00000000E+00  0.00000000E+00
 -1.24362631E+00  1.10631118E+00  0.00000000E+00  0.00000000E+00  7.39453247E-01
 -3.76836592E-01  0.00000000E+00  0.00000000E+00  4.03002656E-14  0.00000000E+00
  1.09710211E-01  2.21582024E-01  0.00000000E+00  0.00000000E+00 -4.44169863E-02
 -1.83978504E+00  0.00000000E+00  0.00000000E+00 -3.76775352E-01  4.91192763E+00
  0.00000000E+00  0.00000000E+00 -7.16420544E-01 -2.15108456E+00  0.00000000E+00