Title                                                                   
Freq      RB3LYP                                                      STO-3G              
Number of atoms                            I               20
Info1-9                                    I   N=           9
          29          29           0           0           0         100
           6          18        -502
Charge                                     I                0
Multiplicity                               I                1
Number of electrons                        I               70
Number of alpha electrons                  I               35
Number of beta electrons                   I               35
Number of basis functions                  I               60
Number of independent functions            I               60
Number of point charges in /Mol/           I                0
Number of translation vectors              I                0
Atomic numbers                             I   N=          20
           6           6           6           6           6           1
           1           1           6           6           1           1
           1           6           1           6           1           1
           6           1
Nuclear charges                            R   N=          20
  6.00000000E+00  6.00000000E+00  6.00000000E+00  6.00000000E+00  6.00000000E+00
  1.00000000E+00  1.00000000E+00  1.00000000E+00  6.00000000E+00  6.00000000E+00
  1.00000000E+00  1.00000000E+00  1.00000000E+00  6.00000000E+00  1.00000000E+00
  6.00000000E+00  1.00000000E+00  1.00000000E+00  6.00000000E+00  1.00000000E+00
Current cartesian coordinates              R   N=          60
  5.09245288E-01 -2.66467825E+00  0.00000000E+00 -2.01208968E+00 -1.73987085E+00
  0.00000000E+00 -2.50470727E+00  8.63659645E-01  0.00000000E+00 -5.09245288E-01
  2.66467825E+00  0.00000000E+00  2.01208968E+00  1.73987085E+00  0.00000000E+00
 -3.59886059E+00 -3.07571069E+00  0.00000000E+00 -4.46877145E+00  1.53666293E+00
  0.00000000E+00  3.59886059E+00  3.07571069E+00  0.00000000E+00 -1.14088814E+00
  5.42335715E+00  0.00000000E+00  5.09245288E-01  7.35472340E+00  0.00000000E+00
  2.56089260E+00  7.07137976E+00  0.00000000E+00 -3.17833794E+00  5.83926131E+00
  0.00000000E+00 -1.39894536E-01  9.32196043E+00  0.00000000E+00  1.14088814E+00
 -5.42335715E+00  0.00000000E+00  3.17833794E+00 -5.83926131E+00  0.00000000E+00
 -5.09245288E-01 -7.35472340E+00  0.00000000E+00 -2.56089260E+00 -7.07137976E+00
  0.00000000E+00  1.39894536E-01 -9.32196043E+00  0.00000000E+00  2.50470727E+00
 -8.63659645E-01  0.00000000E+00  4.46877145E+00 -1.53666293E+00  0.00000000E+00
Force Field                                I                0
Int Atom Types                             I   N=          20
           0           0           0           0           0           0
           0           0           0           0           0           0
           0           0           0           0           0           0
           0           0
MM charges                                 R   N=          20
  0.00000000E+00  0.00000000E+00  0.00000000E+00  0.00000000E+00  0.00000000E+00
  0.00000000E+00  0.00000000E+00  0.00000000E+00  0.00000000E+00  0.00000000E+00
  0.00000000E+00  0.00000000E+00  0.00000000E+00  0.00000000E+00  0.00000000E+00
  0.00000000E+00  0.00000000E+00  0.00000000E+00  0.00000000E+00  0.00000000E+00
Integer atomic weights                     I   N=          20
          12          12          12          12          12           1
           1           1          12          12           1           1
           1          12           1          12           1           1
          12           1
Real atomic weights                        R   N=          20
  1.20000000E+01  1.20000000E+01  1.20000000E+01  1.20000000E+01  1.20000000E+01
  1.00782504E+00  1.00782504E+00  1.00782504E+00  1.20000000E+01  1.20000000E+01
  1.00782504E+00  1.00782504E+00  1.00782504E+00  1.20000000E+01  1.00782504E+00
  1.20000000E+01  1.00782504E+00  1.00782504E+00  1.20000000E+01  1.00782504E+00
Atom fragment info                         I   N=          20
           0           0           0           0           0           0
           0           0           0           0           0           0
           0           0           0           0           0           0
           0           0
Atom residue num                           I   N=          20
           0           0           0           0           0           0
           0           0           0           0           0           0
           0           0           0           0           0           0
           0           0
Nuclear spins                              I   N=          20
           0           0           0           0           0           1
           1           1           0           0           1           1
           1           0           1           0           1           1
           0           1
Nuclear ZEff                               R   N=          20
 -3.60000000E+00 -3.60000000E+00 -3.60000000E+00 -3.60000000E+00 -3.60000000E+00
 -1.00000000E+00 -1.00000000E+00 -1.00000000E+00 -3.60000000E+00 -3.60000000E+00
 -1.00000000E+00 -1.00000000E+00 -1.00000000E+00 -3.60000000E+00 -1.00000000E+00
 -3.60000000E+00 -1.00000000E+00 -1.00000000E+00 -3.60000000E+00 -1.00000000E+00
Nuclear ZNuc                               R   N=          20
  6.00000000E+00  6.00000000E+00  6.00000000E+00  6.00000000E+00  6.00000000E+00
  1.00000000E+00  1.00000000E+00  1.00000000E+00  6.00000000E+00  6.00000000E+00
  1.00000000E+00  1.00000000E+00  1.00000000E+00  6.00000000E+00  1.00000000E+00
  6.00000000E+00  1.00000000E+00  1.00000000E+00  6.00000000E+00  1.00000000E+00
Nuclear QMom                               R   N=          20
  0.00000000E+00  0.00000000E+00  0.00000000E+00  0.00000000E+00  0.00000000E+00
  0.00000000E+00  0.00000000E+00  0.00000000E+00  0.00000000E+00  0.00000000E+00
  0.00000000E+00  0.00000000E+00  0.00000000E+00  0.00000000E+00  0.00000000E+00
  0.00000000E+00  0.00000000E+00  0.00000000E+00  0.00000000E+00  0.00000000E+00
Nuclear GFac                               R   N=          20
  0.00000000E+00  0.00000000E+00  0.00000000E+00  0.00000000E+00  0.00000000E+00
  2.79284600E+00  2.79284600E+00  2.79284600E+00  0.00000000E+00  0.00000000E+00
  2.79284600E+00  2.79284600E+00  2.79284600E+00  0.00000000E+00  2.79284600E+00
  0.00000000E+00  2.79284600E+00  2.79284600E+00  0.00000000E+00  2.79284600E+00
MicOpt                                     I   N=          20
          -1          -1          -1          -1          -1          -1
          -1          -1          -1          -1          -1          -1
          -1          -1          -1          -1          -1          -1
          -1          -1
Number of contracted shells                I               30
Number of primitive shells                 I               90
Pure/Cartesian d shells                    I                0
Pure/Cartesian f shells                    I                0
Highest angular momentum                   I                1
Largest degree of contraction              I                3
Shell types                                I   N=          30
           0          -1           0          -1           0          -1
           0          -1           0          -1           0           0
           0           0          -1           0          -1           0
           0           0           0          -1           0           0
          -1           0           0           0          -1           0
Number of primitives per shell             I   N=          30
           3           3           3           3           3           3
           3           3           3           3           3           3
           3           3           3           3           3           3
           3           3           3           3           3           3
           3           3           3           3           3           3
Shell to atom map                          I   N=          30
           1           1           2           2           3           3
           4           4           5           5           6           7
           8           9           9          10          10          11
          12          13          14          14          15          16
          16          17          18          19          19          20
Primitive exponents                        R   N=          90
  7.16168373E+01  1.30450963E+01  3.53051216E+00  2.94124936E+00  6.83483096E-01
  2.22289916E-01  7.16168373E+01  1.30450963E+01  3.53051216E+00  2.94124936E+00
  6.83483096E-01  2.22289916E-01  7.16168373E+01  1.30450963E+01  3.53051216E+00
  2.94124936E+00  6.83483096E-01  2.22289916E-01  7.16168373E+01  1.30450963E+01
  3.53051216E+00  2.94124936E+00  6.83483096E-01  2.22289916E-01  7.16168373E+01
  1.30450963E+01  3.53051216E+00  2.94124936E+00  6.83483096E-01  2.22289916E-01
  3.42525091E+00  6.23913730E-01  1.68855404E-01  3.42525091E+00  6.23913730E-01
  1.68855404E-01  3.42525091E+00  6.23913730E-01  1.68855404E-01  7.16168373E+01
  1.30450963E+01  3.53051216E+00  2.94124936E+00  6.83483096E-01  2.22289916E-01
  7.16168373E+01  1.30450963E+01  3.53051216E+00  2.94124936E+00  6.83483096E-01
  2.22289916E-01  3.42525091E+00  6.23913730E-01  1.68855404E-01  3.42525091E+00
  6.23913730E-01  1.68855404E-01  3.42525091E+00  6.23913730E-01  1.68855404E-01
  7.16168373E+01  1.30450963E+01  3.53051216E+00  2.94124936E+00  6.83483096E-01
  2.22289916E-01  3.42525091E+00  6.23913730E-01  1.68855404E-01  7.16168373E+01
  1.30450963E+01  3.53051216E+00  2.94124936E+00  6.83483096E-01  2.22289916E-01
  3.42525091E+00  6.23913730E-01  1.68855404E-01  3.42525091E+00  6.23913730E-01
  1.68855404E-01  7.16168373E+01  1.30450963E+01  3.53051216E+00  2.94124936E+00
  6.83483096E-01  2.22289916E-01  3.42525091E+00  6.23913730E-01  1.68855404E-01
Contraction coefficients                   R   N=          90
  1.54328967E-01  5.35328142E-01  4.44634542E-01 -9.99672292E-02  3.99512826E-01
  7.00115469E-01  1.54328967E-01  5.35328142E-01  4.44634542E-01 -9.99672292E-02
  3.99512826E-01  7.00115469E-01  1.54328967E-01  5.35328142E-01  4.44634542E-01
 -9.99672292E-02  3.99512826E-01  7.00115469E-01  1.54328967E-01  5.35328142E-01
  4.44634542E-01 -9.99672292E-02  3.99512826E-01  7.00115469E-01  1.54328967E-01
  5.35328142E-01  4.44634542E-01 -9.99672292E-02  3.99512826E-01  7.00115469E-01
  1.54328967E-01  5.35328142E-01  4.44634542E-01  1.54328967E-01  5.35328142E-01
  4.44634542E-01  1.54328967E-01  5.35328142E-01  4.44634542E-01  1.54328967E-01
  5.35328142E-01  4.44634542E-01 -9.99672292E-02  3.99512826E-01  7.00115469E-01
  1.54328967E-01  5.35328142E-01  4.44634542E-01 -9.99672292E-02  3.99512826E-01
  7.00115469E-01  1.54328967E-01  5.35328142E-01  4.44634542E-01  1.54328967E-01
  5.35328142E-01  4.44634542E-01  1.54328967E-01  5.35328142E-01  4.44634542E-01
  1.54328967E-01  5.35328142E-01  4.44634542E-01 -9.99672292E-02  3.99512826E-01
  7.00115469E-01  1.54328967E-01  5.35328142E-01  4.44634542E-01  1.54328967E-01
  5.35328142E-01  4.44634542E-01 -9.99672292E-02  3.99512826E-01  7.00115469E-01
  1.54328967E-01  5.35328142E-01  4.44634542E-01  1.54328967E-01  5.35328142E-01
  4.44634542E-01  1.54328967E-01  5.35328142E-01  4.44634542E-01 -9.99672292E-02
  3.99512826E-01  7.00115469E-01  1.54328967E-01  5.35328142E-01  4.44634542E-01
P(S=P) Contraction coefficients            R   N=          90
  0.00000000E+00  0.00000000E+00  0.00000000E+00  1.55916275E-01  6.07683719E-01
  3.91957393E-01  0.00000000E+00  0.00000000E+00  0.00000000E+00  1.55916275E-01
  6.07683719E-01  3.91957393E-01  0.00000000E+00  0.00000000E+00  0.00000000E+00
  1.55916275E-01  6.07683719E-01  3.91957393E-01  0.00000000E+00  0.00000000E+00
  0.00000000E+00  1.55916275E-01  6.07683719E-01  3.91957393E-01  0.00000000E+00
  0.00000000E+00  0.00000000E+00  1.55916275E-01  6.07683719E-01  3.91957393E-01
  0.00000000E+00  0.00000000E+00  0.00000000E+00  0.00000000E+00  0.00000000E+00
  0.00000000E+00  0.00000000E+00  0.00000000E+00  0.00000000E+00  0.00000000E+00
  0.00000000E+00  0.00000000E+00  1.55916275E-01  6.07683719E-01  3.91957393E-01
  0.00000000E+00  0.00000000E+00  0.00000000E+00  1.55916275E-01  6.07683719E-01
  3.91957393E-01  0.00000000E+00  0.00000000E+00  0.00000000E+00  0.00000000E+00
  0.00000000E+00  0.00000000E+00  0.00000000E+00  0.00000000E+00  0.00000000E+00
  0.00000000E+00  0.00000000E+00  0.00000000E+00  1.55916275E-01  6.07683719E-01
  3.91957393E-01  0.00000000E+00  0.00000000E+00  0.00000000E+00  0.00000000E+00
  0.00000000E+00  0.00000000E+00  1.55916275E-01  6.07683719E-01  3.91957393E-01
  0.00000000E+00  0.00000000E+00  0.00000000E+00  0.00000000E+00  0.00000000E+00
  0.00000000E+00  0.00000000E+00  0.00000000E+00  0.00000000E+00  1.55916275E-01
  6.07683719E-01  3.91957393E-01  0.00000000E+00  0.00000000E+00  0.00000000E+00
Coordinates of each shell                  R   N=          90
  5.09245288E-01 -2.66467825E+00  0.00000000E+00  5.09245288E-01 -2.66467825E+00
  0.00000000E+00 -2.01208968E+00 -1.73987085E+00  0.00000000E+00 -2.01208968E+00
 -1.73987085E+00  0.00000000E+00 -2.50470727E+00  8.63659645E-01  0.00000000E+00
 -2.50470727E+00  8.63659645E-01  0.00000000E+00 -5.09245288E-01  2.66467825E+00
  0.00000000E+00 -5.09245288E-01  2.66467825E+00  0.00000000E+00  2.01208968E+00
  1.73987085E+00  0.00000000E+00  2.01208968E+00  1.73987085E+00  0.00000000E+00
 -3.59886059E+00 -3.07571069E+00  0.00000000E+00 -4.46877145E+00  1.53666293E+00
  0.00000000E+00  3.59886059E+00  3.07571069E+00  0.00000000E+00 -1.14088814E+00
  5.42335715E+00  0.00000000E+00 -1.14088814E+00  5.42335715E+00  0.00000000E+00
  5.09245288E-01  7.35472340E+00  0.00000000E+00  5.09245288E-01  7.35472340E+00
  0.00000000E+00  2.56089260E+00  7.07137976E+00  0.00000000E+00 -3.17833794E+00
  5.83926131E+00  0.00000000E+00 -1.39894536E-01  9.32196043E+00  0.00000000E+00
  1.14088814E+00 -5.42335715E+00  0.00000000E+00  1.14088814E+00 -5.42335715E+00
  0.00000000E+00  3.17833794E+00 -5.83926131E+00  0.00000000E+00 -5.09245288E-01
 -7.35472340E+00  0.00000000E+00 -5.09245288E-01 -7.35472340E+00  0.00000000E+00
 -2.56089260E+00 -7.07137976E+00  0.00000000E+00  1.39894536E-01 -9.32196043E+00
  0.00000000E+00  2.50470727E+00 -8.63659645E-01  0.00000000E+00  2.50470727E+00
 -8.63659645E-01  0.00000000E+00  4.46877145E+00 -1.53666293E+00  0.00000000E+00
Constraint Structure                       R   N=          60
  5.09245288E-01 -2.66467825E+00  0.00000000E+00 -2.01208968E+00 -1.73987085E+00
  0.00000000E+00 -2.50470727E+00  8.63659645E-01  0.00000000E+00 -5.09245288E-01
  2.66467825E+00  0.00000000E+00  2.01208968E+00  1.73987085E+00  0.00000000E+00
 -3.59886059E+00 -3.07571069E+00  0.00000000E+00 -4.46877145E+00  1.53666293E+00
  0.00000000E+00  3.59886059E+00  3.07571069E+00  0.00000000E+00 -1.14088814E+00
  5.42335715E+00  0.00000000E+00  5.09245288E-01  7.35472340E+00  0.00000000E+00
  2.56089260E+00  7.07137976E+00  0.00000000E+00 -3.17833794E+00  5.83926131E+00
  0.00000000E+00 -1.39894536E-01  9.32196043E+00  0.00000000E+00  1.14088814E+00
 -5.42335715E+00  0.00000000E+00  3.17833794E+00 -5.83926131E+00  0.00000000E+00
 -5.09245288E-01 -7.35472340E+00  0.00000000E+00 -2.56089260E+00 -7.07137976E+00
  0.00000000E+00  1.39894536E-01 -9.32196043E+00  0.00000000E+00  2.50470727E+00
 -8.63659645E-01  0.00000000E+00  4.46877145E+00 -1.53666293E+00  0.00000000E+00
Num ILSW                                   I              100
ILSW                                       I   N=         100
           0           0           0           0           2           0
           0           0           0           0         402          -1
           0           0           0           0           2           0
           0           0           0           0           1           0
           1           1           0           0           0           0
           0           0      100000           0          -1           0
           0           0           0           0           0           0
           0           0           0           1           0           0
           0           0           1           0           0           0
           0           0           4          41           0           0
           0           0           5           0           0           0
           0           0           0          20           0           0
           0           0           0           0           0           0
           0           0           0           0           0           0
           0           0           0           0           0           0
           0           0           0           0           0           0
           0           0           0           0
Num RLSW                                   I               41
RLSW                                       R   N=          41
  8.00000000E-01  7.20000000E-01  1.00000000E+00  8.10000000E-01  2.00000000E-01
  0.00000000E+00  0.00000000E+00  1.00000000E+00  0.00000000E+00  0.00000000E+00
  0.00000000E+00  0.00000000E+00  1.00000000E+00  0.00000000E+00  0.00000000E+00
  0.00000000E+00  0.00000000E+00  1.00000000E+00  0.00000000E+00  0.00000000E+00
  0.00000000E+00  0.00000000E+00  1.00000000E+00  0.00000000E+00  0.00000000E+00
  0.00000000E+00  0.00000000E+00  1.00000000E+00  0.00000000E+00  0.00000000E+00
  0.00000000E+00  0.00000000E+00  1.00000000E+00  0.00000000E+00  0.00000000E+00
  0.00000000E+00  0.00000000E+00  0.00000000E+00  1.00000000E+00  1.00000000E+00
  0.00000000E+00
MxBond                                     I                3
NBond                                      I   N=          20
           3           3           3           3           3           1
           1           1           3           3           1           1
           1           3           1           3           1           1
           3           1
IBond                                      I   N=          60
           2          14          19           1           3           6
           2           4           7           3           5           9
           4           8          19           2           0           0
           3           0           0           5           0           0
           4          10          12           9          11          13
          10           0           0           9           0           0
          10           0           0           1          15          16
          14           0           0          14          17          18
          16           0           0          16           0           0
           1           5          20          19           0           0
RBond                                      R   N=          60
  1.50000000E+00  1.00000000E+00  1.50000000E+00  1.50000000E+00  1.50000000E+00
  1.00000000E+00  1.50000000E+00  1.50000000E+00  1.00000000E+00  1.50000000E+00
  1.50000000E+00  1.00000000E+00  1.50000000E+00  1.00000000E+00  1.50000000E+00
  1.00000000E+00  0.00000000E+00  0.00000000E+00  1.00000000E+00  0.00000000E+00
  0.00000000E+00  1.00000000E+00  0.00000000E+00  0.00000000E+00  1.00000000E+00
  2.00000000E+00  1.00000000E+00  2.00000000E+00  1.00000000E+00  1.00000000E+00
  1.00000000E+00  0.00000000E+00  0.00000000E+00  1.00000000E+00  0.00000000E+00
  0.00000000E+00  1.00000000E+00  0.00000000E+00  0.00000000E+00  1.00000000E+00
  1.00000000E+00  2.00000000E+00  1.00000000E+00  0.00000000E+00  0.00000000E+00
  2.00000000E+00  1.00000000E+00  1.00000000E+00  1.00000000E+00  0.00000000E+00
  0.00000000E+00  1.00000000E+00  0.00000000E+00  0.00000000E+00  1.50000000E+00
  1.50000000E+00  1.00000000E+00  1.00000000E+00  0.00000000E+00  0.00000000E+00
Virial Ratio                               R      2.017190276469815E+00
SCF Energy                                 R     -3.823082665796225E+02
Total Energy                               R     -3.823082665796225E+02
RMS Force                                  R      1.623645246340308E-05
RMS Density                                R      3.569151318873399E-09
External E-field                           R   N=          35
  0.00000000E+00  0.00000000E+00  0.00000000E+00  0.00000000E+00  0.00000000E+00
  0.00000000E+00  0.00000000E+00  0.00000000E+00  0.00000000E+00  0.00000000E+00
  0.00000000E+00  0.00000000E+00  0.00000000E+00  0.00000000E+00  0.00000000E+00
  0.00000000E+00  0.00000000E+00  0.00000000E+00  0.00000000E+00  0.00000000E+00
  0.00000000E+00  0.00000000E+00  0.00000000E+00  0.00000000E+00  0.00000000E+00
  0.00000000E+00  0.00000000E+00  0.00000000E+00  0.00000000E+00  0.00000000E+00
  0.00000000E+00  0.00000000E+00  0.00000000E+00  0.00000000E+00  0.00000000E+00
IOpCl                                      I                0
IROHF                                      I                0
Alpha Orbital Energies                     R   N=          60
 -1.00202096E+01 -1.00201622E+01 -1.00081156E+01 -1.00081146E+01 -1.00067891E+01
 -1.00067846E+01 -1.00060521E+01 -1.00059143E+01 -9.99233022E+00 -9.99233014E+00
 -8.09505993E-01 -7.53985771E-01 -7.17965504E-01 -6.99780939E-01 -6.67505503E-01
 -5.88691324E-01 -5.58922487E-01 -5.31666822E-01 -5.10168330E-01 -4.57444547E-01
 -4.39364791E-01 -4.10598091E-01 -3.97956377E-01 -3.96069635E-01 -3.73965757E-01
 -3.51150570E-01 -3.47295102E-01 -3.24506451E-01 -3.11253770E-01 -2.92784165E-01
 -2.87458111E-01 -2.63546306E-01 -2.12447389E-01 -1.95049874E-01 -1.53084205E-01
  3.74218056E-02  9.03641366E-02  1.10612254E-01  1.82203490E-01  2.72526407E-01
  3.32229773E-01  3.40727588E-01  3.79364341E-01  3.81454481E-01  4.10968853E-01
  4.11951268E-01  4.26762289E-01  4.39639792E-01  4.52761995E-01  4.78263056E-01
  5.26242747E-01  5.45823898E-01  5.76012131E-01  5.99439198E-01  6.24983198E-01
  6.39713290E-01  6.82794508E-01  7.17243895E-01  7.79557593E-01  7.94578762E-01
Alpha MO coefficients                      R   N=        3600
  6.99293900E-01  3.15673155E-02 -5.32786534E-05  9.12431038E-04  9.92518040E-17
 -1.91484279E-02 -7.71298326E-03 -4.20385030E-03  1.23237981E-03 -1.13633667E-16
  1.85786310E-02  7.72504146E-03  3.46074019E-03  2.71859286E-03  2.42881926E-16
 -6.99293900E-01 -3.15673155E-02 -5.32786534E-05  9.12431038E-04 -4.61075461E-17
  1.91484279E-02  7.71298325E-03 -4.20385030E-03  1.23237981E-03 -5.84686000E-17
  3.32655033E-04 -3.32908766E-04 -3.32655033E-04  2.74413701E-02  6.72591214E-03
  1.00511664E-03 -3.94792559E-03 -4.86660557E-18 -1.80415088E-04 -4.74536197E-04
 -1.13130374E-05  2.82187554E-04 -8.26018568E-18  1.48426153E-04 -3.25994864E-04
  2.87434906E-05 -2.74413701E-02 -6.72591214E-03  1.00511664E-03 -3.94792559E-03
 -4.80680255E-17  3.25994864E-04  1.80415088E-04  4.74536197E-04 -1.13130374E-05
  2.82187554E-04  5.38314352E-17 -1.48426153E-04 -2.87434906E-05 -1.85786310E-02
 -7.72504146E-03  3.46074019E-03  2.71859286E-03 -3.49581120E-17  3.32908766E-04
  6.99291615E-01  3.13606644E-02  7.32214290E-06  6.43736528E-04 -2.38386704E-16
 -1.94060376E-02 -6.87903595E-03 -4.10469773E-03  1.66265188E-03  6.25931196E-16
 -1.90567528E-02 -6.91295098E-03 -3.24306216E-03 -3.08272449E-03 -3.61814867E-16
  6.99291615E-01  3.13606644E-02 -7.32214290E-06 -6.43736528E-04 -2.80012292E-16
 -1.94060376E-02 -6.87903595E-03  4.10469773E-03 -1.66265188E-03 -8.58924763E-17
  2.22934157E-04  2.19901674E-04  2.22934157E-04 -2.78054808E-02 -6.79381175E-03
 -1.01377053E-03  3.98535190E-03 -2.50538411E-16  1.94232046E-04  4.77755958E-04
  1.08657137E-05 -2.88859612E-04 -2.98587824E-16 -1.40588864E-04  3.37258419E-04
 -2.78394512E-05 -2.78054808E-02 -6.79381175E-03  1.01377053E-03 -3.98535190E-03
 -3.41119852E-16  3.37258419E-04  1.94232046E-04  4.77755958E-04 -1.08657137E-05
  2.88859612E-04 -5.33090368E-16 -1.40588864E-04 -2.78394512E-05 -1.90567528E-02
 -6.91295098E-03  3.24306216E-03  3.08272449E-03 -3.57823489E-16  2.19901674E-04
 -2.80452325E-02  4.12519447E-03  7.75457825E-04 -4.12997279E-03  1.97656235E-16
  7.71113957E-03  4.41975497E-04  1.31344720E-04  7.85723490E-05 -2.67775085E-17
 -8.72472775E-03 -5.31733157E-04 -1.28751167E-04  2.15008364E-06  1.54700756E-17
  2.80452331E-02 -4.12519455E-03  7.75457839E-04 -4.12997287E-03  1.02641031E-16
 -7.71113977E-03 -4.41975505E-04  1.31344724E-04  7.85723494E-05  3.48692827E-17
  5.99173255E-05  7.59290804E-05 -5.99173267E-05  6.99825091E-01  3.07839663E-02
  7.15589359E-04  1.09289996E-03  8.05875679E-17 -8.11104343E-03 -7.61379170E-03
  2.95708081E-03  3.51524059E-03 -6.88712174E-17  1.86289699E-04 -6.42292198E-03
  2.15862713E-04 -6.99825078E-01 -3.07839657E-02  7.15589345E-04  1.09289994E-03
 -6.54252502E-17  6.42292185E-03  8.11104327E-03  7.61379155E-03  2.95708076E-03
  3.51524052E-03 -3.11294105E-17 -1.86289695E-04 -2.15862709E-04  8.72472753E-03
  5.31733146E-04 -1.28751164E-04  2.15008492E-06 -1.49915546E-16 -7.59290789E-05
  2.82511960E-02 -4.07060529E-03 -7.66957894E-04  4.10291149E-03 -6.11764262E-17
 -1.02851135E-02 -4.22831851E-04 -2.09526122E-04 -1.74728630E-05  1.45147242E-16
 -1.15902459E-02 -5.56979806E-04 -1.88599118E-04 -6.52225779E-05  5.95555413E-16
  2.82511955E-02 -4.07060521E-03  7.66957879E-04 -4.10291141E-03 -1.92769325E-16
 -1.02851133E-02 -4.22831843E-04  2.09526119E-04  1.74728615E-05  8.72993777E-17
 -6.15602720E-05  8.12377005E-05 -6.15602709E-05  6.99743246E-01  3.07654195E-02
  7.12987790E-04  1.10316860E-03 -4.74981276E-16 -8.10452473E-03 -7.61217363E-03
  2.95743587E-03  3.51339928E-03  4.84140526E-16  1.86662217E-04 -6.42068950E-03
  2.16091560E-04  6.99743260E-01  3.07654201E-02 -7.12987804E-04 -1.10316862E-03
 -6.08220218E-16 -6.42068963E-03 -8.10452489E-03 -7.61217378E-03 -2.95743592E-03
 -3.51339935E-03 -3.11848617E-16  1.86662221E-04  2.16091564E-04 -1.15902460E-02
 -5.56979816E-04  1.88599120E-04  6.52225778E-05 -3.01296757E-16  8.12377020E-05
  2.75273792E-02 -7.89451943E-03  2.03315145E-03 -2.83539947E-03 -5.67217894E-17
  6.12858614E-01  3.03510835E-02  1.67886126E-04  2.87670838E-03  6.17056227E-17
 -3.37170590E-01 -2.07618108E-02 -1.18711014E-03  4.10927997E-03 -2.67931402E-16
 -2.75273792E-02  7.89451944E-03  2.03315146E-03 -2.83539947E-03  1.54204731E-16
 -6.12858616E-01 -3.03510836E-02  1.67886126E-04  2.87670838E-03 -3.10960125E-17
 -5.63966949E-03  3.20938446E-03  5.63966950E-03 -9.94789383E-03 -5.59015329E-04
 -5.03013699E-05 -4.38870824E-05 -1.36576768E-16  9.26846978E-04  2.35525532E-04
 -2.96611811E-06 -1.23716300E-04  1.43649220E-18 -1.58961953E-04  1.41848229E-04
  1.02394563E-05  9.94789383E-03  5.59015329E-04 -5.03013697E-05 -4.38870823E-05
 -3.60063183E-17 -1.41848229E-04 -9.26846977E-04 -2.35525532E-04 -2.96611815E-06
 -1.23716300E-04 -5.72124963E-17  1.58961953E-04 -1.02394563E-05  3.37170590E-01
  2.07618108E-02 -1.18711014E-03  4.10927998E-03 -1.00528102E-16 -3.20938447E-03
  7.08775762E-03 -1.76844520E-03  5.19041008E-03  2.74068013E-04 -1.07148304E-15
  5.97694482E-01  2.97269903E-02 -5.07867552E-05  2.83861086E-03 -1.97079551E-16
 -3.64367438E-01 -2.16531899E-02 -1.11558829E-03  3.91881878E-03  2.12349400E-16
  7.08775756E-03 -1.76844519E-03 -5.19041008E-03 -2.74068019E-04 -4.61729467E-17
  5.97694481E-01  2.97269902E-02  5.07867555E-05 -2.83861086E-03  1.06848522E-16
 -5.51872585E-03  3.38112406E-03 -5.51872584E-03  2.47401662E-03  1.01996721E-04
  1.10709443E-04  6.23632361E-05  6.67237615E-16 -4.42976755E-04 -1.02074320E-04
 -2.22541649E-05  3.83083882E-05 -2.88589758E-16  1.60482083E-04 -4.71110015E-05
 -5.55646855E-06  2.47401663E-03  1.01996722E-04 -1.10709443E-04 -6.23632362E-05
 -9.21708519E-17 -4.71110018E-05 -4.42976757E-04 -1.02074320E-04  2.22541649E-05
 -3.83083884E-05  6.28297883E-17  1.60482083E-04 -5.55646857E-06 -3.64367437E-01
 -2.16531899E-02  1.11558829E-03 -3.91881877E-03  2.61531282E-16  3.38112406E-03
 -7.58089084E-03  2.29159399E-03  4.71371912E-03  1.84479870E-03  1.09489023E-17
  3.38529965E-01  9.14203149E-03  9.98947450E-04 -3.43669494E-03 -1.40731601E-16
  6.13611528E-01  2.39307929E-02  3.62021407E-04  1.64100529E-03 -5.11595860E-17
  7.58089084E-03 -2.29159399E-03  4.71371912E-03  1.84479870E-03 -6.72762858E-17
 -3.38529965E-01 -9.14203149E-03  9.98947450E-04 -3.43669494E-03 -5.23651775E-17
 -2.89690932E-03 -5.44393835E-03  2.89690932E-03  3.65542620E-03  2.08132078E-04
 -4.17644341E-06  2.64103101E-05  1.01242458E-16  8.58738100E-05 -5.00929948E-05
  4.63218574E-05  2.37295384E-05  7.04003898E-17 -6.42111075E-05 -6.38841236E-05
  8.64065800E-06 -3.65542620E-03 -2.08132078E-04 -4.17644342E-06  2.64103101E-05
 -9.37090328E-17  6.38841235E-05 -8.58738103E-05  5.00929947E-05  4.63218574E-05
  2.37295383E-05  1.45983512E-17  6.42111075E-05 -8.64065800E-06 -6.13611528E-01
 -2.39307929E-02  3.62021407E-04  1.64100529E-03 -1.45263187E-16  5.44393835E-03
  2.83718912E-02 -7.32034322E-03 -6.42338865E-04 -3.16013602E-03  3.11093733E-16
  3.64649788E-01  1.04287842E-02  7.48341500E-04 -3.38050545E-03 -3.27000273E-16
  5.97857986E-01  2.28433896E-02 -5.85995167E-05  1.85763577E-03  5.01343382E-17
  2.83718912E-02 -7.32034322E-03  6.42338865E-04  3.16013602E-03  4.26110923E-16
  3.64649788E-01  1.04287842E-02 -7.48341500E-04  3.38050545E-03  6.49555055E-16
 -3.31795558E-03 -5.46186983E-03 -3.31795558E-03  1.42167034E-02  6.20593606E-04
  1.16710472E-06  1.73116464E-04 -1.46004979E-16 -1.08280523E-03 -2.82787616E-04
  4.01763750E-05  1.67006383E-04 -5.15909796E-16  7.24591168E-05 -2.20886042E-04
 -1.07942804E-05  1.42167034E-02  6.20593606E-04 -1.16710473E-06 -1.73116464E-04
  4.18085079E-16 -2.20886042E-04 -1.08280523E-03 -2.82787616E-04 -4.01763750E-05
 -1.67006383E-04  4.92427147E-16  7.24591168E-05 -1.07942804E-05  5.97857986E-01
  2.28433896E-02  5.85995166E-05 -1.85763577E-03  4.99128418E-16 -5.46186983E-03