Title                                                                   
SP        RB3LYP TD-FC                                                STO-3G              
Number of atoms                            I               20
Info1-9                                    I   N=           9
           5           5           0           0           0         111
           1         218        -501
Charge                                     I                0
Multiplicity                               I                1
Number of electrons                        I               70
Number of alpha electrons                  I               35
Number of beta electrons                   I               35
Number of basis functions                  I               60
Number of independent functions            I               60
Number of point charges in /Mol/           I                0
Number of translation vectors              I                0
Atomic numbers                             I   N=          20
           6           6           6           6           6           1
           1           1           6           6           1           1
           1           6           1           6           1           1
           6           1
Nuclear charges                            R   N=          20
  6.00000000E+00  6.00000000E+00  6.00000000E+00  6.00000000E+00  6.00000000E+00
  1.00000000E+00  1.00000000E+00  1.00000000E+00  6.00000000E+00  6.00000000E+00
  1.00000000E+00  1.00000000E+00  1.00000000E+00  6.00000000E+00  1.00000000E+00
  6.00000000E+00  1.00000000E+00  1.00000000E+00  6.00000000E+00  1.00000000E+00
Current cartesian coordinates              R   N=          60
  5.09245288E-01 -2.66467825E+00  0.00000000E+00 -2.01208968E+00 -1.73987085E+00
  0.00000000E+00 -2.50470727E+00  8.63659645E-01  0.00000000E+00 -5.09245288E-01
  2.66467825E+00  0.00000000E+00  2.01208968E+00  1.73987085E+00  0.00000000E+00
 -3.59886059E+00 -3.07571069E+00  0.00000000E+00 -4.46877145E+00  1.53666293E+00
  0.00000000E+00  3.59886059E+00  3.07571069E+00  0.00000000E+00 -1.14088814E+00
  5.42335715E+00  0.00000000E+00  5.09245288E-01  7.35472340E+00  0.00000000E+00
  2.56089260E+00  7.07137976E+00  0.00000000E+00 -3.17833794E+00  5.83926131E+00
  0.00000000E+00 -1.39894536E-01  9.32196043E+00  0.00000000E+00  1.14088814E+00
 -5.42335715E+00  0.00000000E+00  3.17833794E+00 -5.83926131E+00  0.00000000E+00
 -5.09245288E-01 -7.35472340E+00  0.00000000E+00 -2.56089260E+00 -7.07137976E+00
  0.00000000E+00  1.39894536E-01 -9.32196043E+00  0.00000000E+00  2.50470727E+00
 -8.63659645E-01  0.00000000E+00  4.46877145E+00 -1.53666293E+00  0.00000000E+00
Force Field                                I                0
Int Atom Types                             I   N=          20
           0           0           0           0           0           0
           0           0           0           0           0           0
           0           0           0           0           0           0
           0           0
MM charges                                 R   N=          20
  0.00000000E+00  0.00000000E+00  0.00000000E+00  0.00000000E+00  0.00000000E+00
  0.00000000E+00  0.00000000E+00  0.00000000E+00  0.00000000E+00  0.00000000E+00
  0.00000000E+00  0.00000000E+00  0.00000000E+00  0.00000000E+00  0.00000000E+00
  0.00000000E+00  0.00000000E+00  0.00000000E+00  0.00000000E+00  0.00000000E+00
Integer atomic weights                     I   N=          20
          12          12          12          12          12           1
           1           1          12          12           1           1
           1          12           1          12           1           1
          12           1
Real atomic weights                        R   N=          20
  1.20000000E+01  1.20000000E+01  1.20000000E+01  1.20000000E+01  1.20000000E+01
  1.00782504E+00  1.00782504E+00  1.00782504E+00  1.20000000E+01  1.20000000E+01
  1.00782504E+00  1.00782504E+00  1.00782504E+00  1.20000000E+01  1.00782504E+00
  1.20000000E+01  1.00782504E+00  1.00782504E+00  1.20000000E+01  1.00782504E+00
Atom fragment info                         I   N=          20
           0           0           0           0           0           0
           0           0           0           0           0           0
           0           0           0           0           0           0
           0           0
Atom residue num                           I   N=          20
           0           0           0           0           0           0
           0           0           0           0           0           0
           0           0           0           0           0           0
           0           0
Nuclear spins                              I   N=          20
           0           0           0           0           0           1
           1           1           0           0           1           1
           1           0           1           0           1           1
           0           1
Nuclear ZEff                               R   N=          20
 -3.60000000E+00 -3.60000000E+00 -3.60000000E+00 -3.60000000E+00 -3.60000000E+00
 -1.00000000E+00 -1.00000000E+00 -1.00000000E+00 -3.60000000E+00 -3.60000000E+00
 -1.00000000E+00 -1.00000000E+00 -1.00000000E+00 -3.60000000E+00 -1.00000000E+00
 -3.60000000E+00 -1.00000000E+00 -1.00000000E+00 -3.60000000E+00 -1.00000000E+00
Nuclear ZNuc                               R   N=          20
  6.00000000E+00  6.00000000E+00  6.00000000E+00  6.00000000E+00  6.00000000E+00
  1.00000000E+00  1.00000000E+00  1.00000000E+00  6.00000000E+00  6.00000000E+00
  1.00000000E+00  1.00000000E+00  1.00000000E+00  6.00000000E+00  1.00000000E+00
  6.00000000E+00  1.00000000E+00  1.00000000E+00  6.00000000E+00  1.00000000E+00
Nuclear QMom                               R   N=          20
  0.00000000E+00  0.00000000E+00  0.00000000E+00  0.00000000E+00  0.00000000E+00
  0.00000000E+00  0.00000000E+00  0.00000000E+00  0.00000000E+00  0.00000000E+00
  0.00000000E+00  0.00000000E+00  0.00000000E+00  0.00000000E+00  0.00000000E+00
  0.00000000E+00  0.00000000E+00  0.00000000E+00  0.00000000E+00  0.00000000E+00
Nuclear GFac                               R   N=          20
  0.00000000E+00  0.00000000E+00  0.00000000E+00  0.00000000E+00  0.00000000E+00
  2.79284600E+00  2.79284600E+00  2.79284600E+00  0.00000000E+00  0.00000000E+00
  2.79284600E+00  2.79284600E+00  2.79284600E+00  0.00000000E+00  2.79284600E+00
  0.00000000E+00  2.79284600E+00  2.79284600E+00  0.00000000E+00  2.79284600E+00
MicOpt                                     I   N=          20
          -1          -1          -1          -1          -1          -1
          -1          -1          -1          -1          -1          -1
          -1          -1          -1          -1          -1          -1
          -1          -1
Number of contracted shells                I               30
Number of primitive shells                 I               90
Pure/Cartesian d shells                    I                0
Pure/Cartesian f shells                    I                0
Highest angular momentum                   I                1
Largest degree of contraction              I                3
Shell types                                I   N=          30
           0          -1           0          -1           0          -1
           0          -1           0          -1           0           0
           0           0          -1           0          -1           0
           0           0           0          -1           0           0
          -1           0           0           0          -1           0
Number of primitives per shell             I   N=          30
           3           3           3           3           3           3
           3           3           3           3           3           3
           3           3           3           3           3           3
           3           3           3           3           3           3
           3           3           3           3           3           3
Shell to atom map                          I   N=          30
           1           1           2           2           3           3
           4           4           5           5           6           7
           8           9           9          10          10          11
          12          13          14          14          15          16
          16          17          18          19          19          20
Primitive exponents                        R   N=          90
  7.16168373E+01  1.30450963E+01  3.53051216E+00  2.94124936E+00  6.83483096E-01
  2.22289916E-01  7.16168373E+01  1.30450963E+01  3.53051216E+00  2.94124936E+00
  6.83483096E-01  2.22289916E-01  7.16168373E+01  1.30450963E+01  3.53051216E+00
  2.94124936E+00  6.83483096E-01  2.22289916E-01  7.16168373E+01  1.30450963E+01
  3.53051216E+00  2.94124936E+00  6.83483096E-01  2.22289916E-01  7.16168373E+01
  1.30450963E+01  3.53051216E+00  2.94124936E+00  6.83483096E-01  2.22289916E-01
  3.42525091E+00  6.23913730E-01  1.68855404E-01  3.42525091E+00  6.23913730E-01
  1.68855404E-01  3.42525091E+00  6.23913730E-01  1.68855404E-01  7.16168373E+01
  1.30450963E+01  3.53051216E+00  2.94124936E+00  6.83483096E-01  2.22289916E-01
  7.16168373E+01  1.30450963E+01  3.53051216E+00  2.94124936E+00  6.83483096E-01
  2.22289916E-01  3.42525091E+00  6.23913730E-01  1.68855404E-01  3.42525091E+00
  6.23913730E-01  1.68855404E-01  3.42525091E+00  6.23913730E-01  1.68855404E-01
  7.16168373E+01  1.30450963E+01  3.53051216E+00  2.94124936E+00  6.83483096E-01
  2.22289916E-01  3.42525091E+00  6.23913730E-01  1.68855404E-01  7.16168373E+01
  1.30450963E+01  3.53051216E+00  2.94124936E+00  6.83483096E-01  2.22289916E-01
  3.42525091E+00  6.23913730E-01  1.68855404E-01  3.42525091E+00  6.23913730E-01
  1.68855404E-01  7.16168373E+01  1.30450963E+01  3.53051216E+00  2.94124936E+00
  6.83483096E-01  2.22289916E-01  3.42525091E+00  6.23913730E-01  1.68855404E-01
Contraction coefficients                   R   N=          90
  1.54328967E-01  5.35328142E-01  4.44634542E-01 -9.99672292E-02  3.99512826E-01
  7.00115469E-01  1.54328967E-01  5.35328142E-01  4.44634542E-01 -9.99672292E-02
  3.99512826E-01  7.00115469E-01  1.54328967E-01  5.35328142E-01  4.44634542E-01
 -9.99672292E-02  3.99512826E-01  7.00115469E-01  1.54328967E-01  5.35328142E-01
  4.44634542E-01 -9.99672292E-02  3.99512826E-01  7.00115469E-01  1.54328967E-01
  5.35328142E-01  4.44634542E-01 -9.99672292E-02  3.99512826E-01  7.00115469E-01
  1.54328967E-01  5.35328142E-01  4.44634542E-01  1.54328967E-01  5.35328142E-01
  4.44634542E-01  1.54328967E-01  5.35328142E-01  4.44634542E-01  1.54328967E-01
  5.35328142E-01  4.44634542E-01 -9.99672292E-02  3.99512826E-01  7.00115469E-01
  1.54328967E-01  5.35328142E-01  4.44634542E-01 -9.99672292E-02  3.99512826E-01
  7.00115469E-01  1.54328967E-01  5.35328142E-01  4.44634542E-01  1.54328967E-01
  5.35328142E-01  4.44634542E-01  1.54328967E-01  5.35328142E-01  4.44634542E-01
  1.54328967E-01  5.35328142E-01  4.44634542E-01 -9.99672292E-02  3.99512826E-01
  7.00115469E-01  1.54328967E-01  5.35328142E-01  4.44634542E-01  1.54328967E-01
  5.35328142E-01  4.44634542E-01 -9.99672292E-02  3.99512826E-01  7.00115469E-01
  1.54328967E-01  5.35328142E-01  4.44634542E-01  1.54328967E-01  5.35328142E-01
  4.44634542E-01  1.54328967E-01  5.35328142E-01  4.44634542E-01 -9.99672292E-02
  3.99512826E-01  7.00115469E-01  1.54328967E-01  5.35328142E-01  4.44634542E-01
P(S=P) Contraction coefficients            R   N=          90
  0.00000000E+00  0.00000000E+00  0.00000000E+00  1.55916275E-01  6.07683719E-01
  3.91957393E-01  0.00000000E+00  0.00000000E+00  0.00000000E+00  1.55916275E-01
  6.07683719E-01  3.91957393E-01  0.00000000E+00  0.00000000E+00  0.00000000E+00
  1.55916275E-01  6.07683719E-01  3.91957393E-01  0.00000000E+00  0.00000000E+00
  0.00000000E+00  1.55916275E-01  6.07683719E-01  3.91957393E-01  0.00000000E+00
  0.00000000E+00  0.00000000E+00  1.55916275E-01  6.07683719E-01  3.91957393E-01
  0.00000000E+00  0.00000000E+00  0.00000000E+00  0.00000000E+00  0.00000000E+00
  0.00000000E+00  0.00000000E+00  0.00000000E+00  0.00000000E+00  0.00000000E+00
  0.00000000E+00  0.00000000E+00  1.55916275E-01  6.07683719E-01  3.91957393E-01
  0.00000000E+00  0.00000000E+00  0.00000000E+00  1.55916275E-01  6.07683719E-01
  3.91957393E-01  0.00000000E+00  0.00000000E+00  0.00000000E+00  0.00000000E+00
  0.00000000E+00  0.00000000E+00  0.00000000E+00  0.00000000E+00  0.00000000E+00
  0.00000000E+00  0.00000000E+00  0.00000000E+00  1.55916275E-01  6.07683719E-01
  3.91957393E-01  0.00000000E+00  0.00000000E+00  0.00000000E+00  0.00000000E+00
  0.00000000E+00  0.00000000E+00  1.55916275E-01  6.07683719E-01  3.91957393E-01
  0.00000000E+00  0.00000000E+00  0.00000000E+00  0.00000000E+00  0.00000000E+00
  0.00000000E+00  0.00000000E+00  0.00000000E+00  0.00000000E+00  1.55916275E-01
  6.07683719E-01  3.91957393E-01  0.00000000E+00  0.00000000E+00  0.00000000E+00
Coordinates of each shell                  R   N=          90
  5.09245288E-01 -2.66467825E+00  0.00000000E+00  5.09245288E-01 -2.66467825E+00
  0.00000000E+00 -2.01208968E+00 -1.73987085E+00  0.00000000E+00 -2.01208968E+00
 -1.73987085E+00  0.00000000E+00 -2.50470727E+00  8.63659645E-01  0.00000000E+00
 -2.50470727E+00  8.63659645E-01  0.00000000E+00 -5.09245288E-01  2.66467825E+00
  0.00000000E+00 -5.09245288E-01  2.66467825E+00  0.00000000E+00  2.01208968E+00
  1.73987085E+00  0.00000000E+00  2.01208968E+00  1.73987085E+00  0.00000000E+00
 -3.59886059E+00 -3.07571069E+00  0.00000000E+00 -4.46877145E+00  1.53666293E+00
  0.00000000E+00  3.59886059E+00  3.07571069E+00  0.00000000E+00 -1.14088814E+00
  5.42335715E+00  0.00000000E+00 -1.14088814E+00  5.42335715E+00  0.00000000E+00
  5.09245288E-01  7.35472340E+00  0.00000000E+00  5.09245288E-01  7.35472340E+00
  0.00000000E+00  2.56089260E+00  7.07137976E+00  0.00000000E+00 -3.17833794E+00
  5.83926131E+00  0.00000000E+00 -1.39894536E-01  9.32196043E+00  0.00000000E+00
  1.14088814E+00 -5.42335715E+00  0.00000000E+00  1.14088814E+00 -5.42335715E+00
  0.00000000E+00  3.17833794E+00 -5.83926131E+00  0.00000000E+00 -5.09245288E-01
 -7.35472340E+00  0.00000000E+00 -5.09245288E-01 -7.35472340E+00  0.00000000E+00
 -2.56089260E+00 -7.07137976E+00  0.00000000E+00  1.39894536E-01 -9.32196043E+00
  0.00000000E+00  2.50470727E+00 -8.63659645E-01  0.00000000E+00  2.50470727E+00
 -8.63659645E-01  0.00000000E+00  4.46877145E+00 -1.53666293E+00  0.00000000E+00
Constraint Structure                       R   N=          60
  5.09245288E-01 -2.66467825E+00  0.00000000E+00 -2.01208968E+00 -1.73987085E+00
  0.00000000E+00 -2.50470727E+00  8.63659645E-01  0.00000000E+00 -5.09245288E-01
  2.66467825E+00  0.00000000E+00  2.01208968E+00  1.73987085E+00  0.00000000E+00
 -3.59886059E+00 -3.07571069E+00  0.00000000E+00 -4.46877145E+00  1.53666293E+00
  0.00000000E+00  3.59886059E+00  3.07571069E+00  0.00000000E+00 -1.14088814E+00
  5.42335715E+00  0.00000000E+00  5.09245288E-01  7.35472340E+00  0.00000000E+00
  2.56089260E+00  7.07137976E+00  0.00000000E+00 -3.17833794E+00  5.83926131E+00
  0.00000000E+00 -1.39894536E-01  9.32196043E+00  0.00000000E+00  1.14088814E+00
 -5.42335715E+00  0.00000000E+00  3.17833794E+00 -5.83926131E+00  0.00000000E+00
 -5.09245288E-01 -7.35472340E+00  0.00000000E+00 -2.56089260E+00 -7.07137976E+00
  0.00000000E+00  1.39894536E-01 -9.32196043E+00  0.00000000E+00  2.50470727E+00
 -8.63659645E-01  0.00000000E+00  4.46877145E+00 -1.53666293E+00  0.00000000E+00
Num ILSW                                   I              100
ILSW                                       I   N=         100
           0           0           0           0           2           0
           0           0           0           0         402          -1
           0           0           0           0           0           0
           0           0           0           0           0           0
           1           0           0           0           0           0
           0           0      100000           0          -1           0
           0           0           0           0           0           0
           0           0           0           1           0           0
           0           0           1           0           0           0
           0           0           4          41           0           0
           0           0           5           0           0           0
           0           0           0          20           0           0
           0           0           0           0           0           0
           0           0           0           0           0           0
           0           0           0           0           0           0
           0           0           0           0           0           0
           0           0           0           0
Num RLSW                                   I               41
RLSW                                       R   N=          41
  8.00000000E-01  7.20000000E-01  1.00000000E+00  8.10000000E-01  2.00000000E-01
  0.00000000E+00  0.00000000E+00  1.00000000E+00  0.00000000E+00  0.00000000E+00
  0.00000000E+00  0.00000000E+00  1.00000000E+00  0.00000000E+00  0.00000000E+00
  0.00000000E+00  0.00000000E+00  1.00000000E+00  0.00000000E+00  0.00000000E+00
  0.00000000E+00  0.00000000E+00  1.00000000E+00  0.00000000E+00  0.00000000E+00
  0.00000000E+00  0.00000000E+00  1.00000000E+00  0.00000000E+00  0.00000000E+00
  0.00000000E+00  0.00000000E+00  1.00000000E+00  0.00000000E+00  0.00000000E+00
  0.00000000E+00  0.00000000E+00  0.00000000E+00  1.00000000E+00  1.00000000E+00
  0.00000000E+00
MxBond                                     I                3
NBond                                      I   N=          20
           3           3           3           3           3           1
           1           1           3           3           1           1
           1           3           1           3           1           1
           3           1
IBond                                      I   N=          60
           2          14          19           1           3           6
           2           4           7           3           5           9
           4           8          19           2           0           0
           3           0           0           5           0           0
           4          10          12           9          11          13
          10           0           0           9           0           0
          10           0           0           1          15          16
          14           0           0          14          17          18
          16           0           0          16           0           0
           1           5          20          19           0           0
RBond                                      R   N=          60
  1.50000000E+00  1.00000000E+00  1.50000000E+00  1.50000000E+00  1.50000000E+00
  1.00000000E+00  1.50000000E+00  1.50000000E+00  1.00000000E+00  1.50000000E+00
  1.50000000E+00  1.00000000E+00  1.50000000E+00  1.00000000E+00  1.50000000E+00
  1.00000000E+00  0.00000000E+00  0.00000000E+00  1.00000000E+00  0.00000000E+00
  0.00000000E+00  1.00000000E+00  0.00000000E+00  0.00000000E+00  1.00000000E+00
  2.00000000E+00  1.00000000E+00  2.00000000E+00  1.00000000E+00  1.00000000E+00
  1.00000000E+00  0.00000000E+00  0.00000000E+00  1.00000000E+00  0.00000000E+00
  0.00000000E+00  1.00000000E+00  0.00000000E+00  0.00000000E+00  1.00000000E+00
  1.00000000E+00  2.00000000E+00  1.00000000E+00  0.00000000E+00  0.00000000E+00
  2.00000000E+00  1.00000000E+00  1.00000000E+00  1.00000000E+00  0.00000000E+00
  0.00000000E+00  1.00000000E+00  0.00000000E+00  0.00000000E+00  1.50000000E+00
  1.50000000E+00  1.00000000E+00  1.00000000E+00  0.00000000E+00  0.00000000E+00
Virial Ratio                               R      2.017190276486472E+00
SCF Energy                                 R     -3.823082665796231E+02
CIS Energy                                 R     -3.821122065487377E+02
Total Energy                               R     -3.821122065487377E+02
Post-SCF wavefunction norm                 R      1.000000000000000E+00
RMS Density                                R      8.987294669236454E-10
External E-field                           R   N=          35
  0.00000000E+00  0.00000000E+00  0.00000000E+00  0.00000000E+00  0.00000000E+00
  0.00000000E+00  0.00000000E+00  0.00000000E+00  0.00000000E+00  0.00000000E+00
  0.00000000E+00  0.00000000E+00  0.00000000E+00  0.00000000E+00  0.00000000E+00
  0.00000000E+00  0.00000000E+00  0.00000000E+00  0.00000000E+00  0.00000000E+00
  0.00000000E+00  0.00000000E+00  0.00000000E+00  0.00000000E+00  0.00000000E+00
  0.00000000E+00  0.00000000E+00  0.00000000E+00  0.00000000E+00  0.00000000E+00
  0.00000000E+00  0.00000000E+00  0.00000000E+00  0.00000000E+00  0.00000000E+00
IOpCl                                      I                0
IROHF                                      I                0
Alpha Orbital Energies                     R   N=          60
 -1.00202096E+01 -1.00201622E+01 -1.00081156E+01 -1.00081146E+01 -1.00067891E+01
 -1.00067846E+01 -1.00060521E+01 -1.00059143E+01 -9.99233021E+00 -9.99233013E+00
 -8.09505991E-01 -7.53985768E-01 -7.17965503E-01 -6.99780942E-01 -6.67505500E-01
 -5.88691323E-01 -5.58922486E-01 -5.31666820E-01 -5.10168331E-01 -4.57444546E-01
 -4.39364789E-01 -4.10598092E-01 -3.97956377E-01 -3.96069634E-01 -3.73965759E-01
 -3.51150567E-01 -3.47295101E-01 -3.24506449E-01 -3.11253767E-01 -2.92784165E-01
 -2.87458109E-01 -2.63546302E-01 -2.12447388E-01 -1.95049877E-01 -1.53084202E-01
  3.74218095E-02  9.03641332E-02  1.10612255E-01  1.82203494E-01  2.72526409E-01
  3.32229774E-01  3.40727590E-01  3.79364341E-01  3.81454482E-01  4.10968852E-01
  4.11951266E-01  4.26762293E-01  4.39639795E-01  4.52761993E-01  4.78263055E-01
  5.26242752E-01  5.45823900E-01  5.76012128E-01  5.99439196E-01  6.24983199E-01
  6.39713292E-01  6.82794509E-01  7.17243898E-01  7.79557596E-01  7.94578763E-01
Alpha MO coefficients                      R   N=        3600
  6.99293895E-01  3.15673167E-02 -5.32788007E-05  9.12430966E-04  0.00000000E+00
 -1.91484814E-02 -7.71298602E-03 -4.20385033E-03  1.23237953E-03  0.00000000E+00
  1.85786670E-02  7.72504357E-03  3.46074030E-03  2.71859249E-03  0.00000000E+00
 -6.99293895E-01 -3.15673167E-02 -5.32788007E-05  9.12430966E-04  0.00000000E+00
  1.91484814E-02  7.71298602E-03 -4.20385033E-03  1.23237953E-03  0.00000000E+00
  3.32655539E-04 -3.32909104E-04 -3.32655539E-04  2.74414348E-02  6.72591501E-03
  1.00511672E-03 -3.94792550E-03  0.00000000E+00 -1.80415634E-04 -4.74536902E-04
 -1.13127668E-05  2.82187887E-04  0.00000000E+00  1.48426182E-04 -3.25995460E-04
  2.87435072E-05 -2.74414348E-02 -6.72591501E-03  1.00511672E-03 -3.94792550E-03
  0.00000000E+00  3.25995460E-04  1.80415634E-04  4.74536902E-04 -1.13127668E-05
  2.82187887E-04  0.00000000E+00 -1.48426182E-04 -2.87435072E-05 -1.85786670E-02
 -7.72504357E-03  3.46074030E-03  2.71859249E-03  0.00000000E+00  3.32909104E-04
  6.99291610E-01  3.13606656E-02  7.32199516E-06  6.43736422E-04  0.00000000E+00
 -1.94060899E-02 -6.87903797E-03 -4.10469781E-03  1.66265207E-03  0.00000000E+00
 -1.90567870E-02 -6.91295199E-03 -3.24306211E-03 -3.08272478E-03  0.00000000E+00
  6.99291610E-01  3.13606656E-02 -7.32199516E-06 -6.43736422E-04  0.00000000E+00
 -1.94060899E-02 -6.87903797E-03  4.10469781E-03 -1.66265207E-03  0.00000000E+00
  2.22934649E-04  2.19901984E-04  2.22934649E-04 -2.78055464E-02 -6.79381464E-03
 -1.01377061E-03  3.98535179E-03  0.00000000E+00  1.94232610E-04  4.77756676E-04
  1.08654385E-05 -2.88859951E-04  0.00000000E+00 -1.40588891E-04  3.37259028E-04
 -2.78394677E-05 -2.78055464E-02 -6.79381464E-03  1.01377061E-03 -3.98535179E-03
  0.00000000E+00  3.37259028E-04  1.94232610E-04  4.77756676E-04 -1.08654385E-05
  2.88859951E-04  0.00000000E+00 -1.40588891E-04 -2.78394677E-05 -1.90567870E-02
 -6.91295199E-03  3.24306211E-03  3.08272478E-03  0.00000000E+00  2.19901984E-04
 -2.80452944E-02  4.12519104E-03  7.75458139E-04 -4.12997309E-03  0.00000000E+00
  7.71120164E-03  4.41978973E-04  1.31345148E-04  7.85723762E-05  0.00000000E+00
 -8.72473985E-03 -5.31734895E-04 -1.28751569E-04  2.15022249E-06  0.00000000E+00
  2.80452944E-02 -4.12519104E-03  7.75458139E-04 -4.12997309E-03  0.00000000E+00
 -7.71120164E-03 -4.41978973E-04  1.31345148E-04  7.85723762E-05  0.00000000E+00
  5.99167467E-05  7.59292209E-05 -5.99167467E-05  6.99825081E-01  3.07839652E-02
  7.15589232E-04  1.09290025E-03  0.00000000E+00 -8.11103592E-03 -7.61379122E-03
  2.95708077E-03  3.51524050E-03  0.00000000E+00  1.86289603E-04 -6.42292186E-03
  2.15862641E-04 -6.99825081E-01 -3.07839652E-02  7.15589232E-04  1.09290025E-03
  0.00000000E+00  6.42292186E-03  8.11103592E-03  7.61379122E-03  2.95708077E-03
  3.51524050E-03  0.00000000E+00 -1.86289603E-04 -2.15862641E-04  8.72473985E-03
  5.31734895E-04 -1.28751569E-04  2.15022249E-06  0.00000000E+00 -7.59292209E-05
  2.82512584E-02 -4.07060192E-03 -7.66958397E-04  4.10291159E-03  0.00000000E+00
 -1.02851890E-02 -4.22835888E-04 -2.09526520E-04 -1.74728826E-05  0.00000000E+00
 -1.15902309E-02 -5.56979013E-04 -1.88599301E-04 -6.52233266E-05  0.00000000E+00
  2.82512584E-02 -4.07060192E-03  7.66958397E-04 -4.10291159E-03  0.00000000E+00
 -1.02851890E-02 -4.22835888E-04  2.09526520E-04  1.74728826E-05  0.00000000E+00
 -6.15595702E-05  8.12375618E-05 -6.15595702E-05  6.99743250E-01  3.07654190E-02
  7.12987668E-04  1.10316891E-03  0.00000000E+00 -8.10451739E-03 -7.61217330E-03
  2.95743588E-03  3.51339926E-03  0.00000000E+00  1.86662121E-04 -6.42068950E-03
  2.16091493E-04  6.99743250E-01  3.07654190E-02 -7.12987668E-04 -1.10316891E-03
  0.00000000E+00 -6.42068950E-03 -8.10451739E-03 -7.61217330E-03 -2.95743588E-03
 -3.51339926E-03  0.00000000E+00  1.86662121E-04  2.16091493E-04 -1.15902309E-02
 -5.56979013E-04  1.88599301E-04  6.52233266E-05  0.00000000E+00  8.12375618E-05
  2.75274001E-02 -7.89450272E-03  2.03318034E-03 -2.83538769E-03  0.00000000E+00
  6.12860692E-01  3.03511389E-02  1.67891832E-04  2.87668737E-03  0.00000000E+00
 -3.37166818E-01 -2.07616630E-02 -1.18710755E-03  4.10929033E-03  0.00000000E+00
 -2.75274001E-02  7.89450272E-03  2.03318034E-03 -2.83538769E-03  0.00000000E+00
 -6.12860692E-01 -3.03511389E-02  1.67891832E-04  2.87668737E-03  0.00000000E+00
 -5.63968726E-03  3.20935099E-03  5.63968726E-03 -9.94792668E-03 -5.59015954E-04
 -5.03013555E-05 -4.38873723E-05  0.00000000E+00  9.26846911E-04  2.35525754E-04
 -2.96607734E-06 -1.23716416E-04  0.00000000E+00 -1.58962338E-04  1.41848336E-04
  1.02395055E-05  9.94792668E-03  5.59015954E-04 -5.03013555E-05 -4.38873723E-05
  0.00000000E+00 -1.41848336E-04 -9.26846911E-04 -2.35525754E-04 -2.96607734E-06
 -1.23716416E-04  0.00000000E+00  1.58962338E-04 -1.02395055E-05  3.37166818E-01
  2.07616630E-02 -1.18710755E-03  4.10929033E-03  0.00000000E+00 -3.20935099E-03
  7.08794188E-03 -1.76848423E-03  5.19040648E-03  2.74051264E-04  0.00000000E+00
  5.97696464E-01  2.97270466E-02 -5.07828899E-05  2.83859253E-03  0.00000000E+00
 -3.64364186E-01 -2.16530659E-02 -1.11558872E-03  3.91882878E-03  0.00000000E+00
  7.08794188E-03 -1.76848423E-03 -5.19040648E-03 -2.74051264E-04  0.00000000E+00
  5.97696464E-01  2.97270466E-02  5.07828899E-05 -2.83859253E-03  0.00000000E+00
 -5.51874389E-03  3.38109436E-03 -5.51874389E-03  2.47416466E-03  1.02002981E-04
  1.10709479E-04  6.23644406E-05  0.00000000E+00 -4.42982588E-04 -1.02076581E-04
 -2.22536439E-05  3.83096447E-05  0.00000000E+00  1.60482483E-04 -4.71128492E-05
 -5.55651425E-06  2.47416466E-03  1.02002981E-04 -1.10709479E-04 -6.23644406E-05
  0.00000000E+00 -4.71128492E-05 -4.42982588E-04 -1.02076581E-04  2.22536439E-05
 -3.83096447E-05  0.00000000E+00  1.60482483E-04 -5.55651425E-06 -3.64364186E-01
 -2.16530659E-02  1.11558872E-03 -3.91882878E-03  0.00000000E+00  3.38109436E-03
 -7.58106528E-03  2.29164206E-03  4.71370659E-03  1.84481622E-03  0.00000000E+00
  3.38526200E-01  9.14184507E-03  9.98946449E-04 -3.43671262E-03  0.00000000E+00
  6.13613599E-01  2.39309204E-02  3.62028631E-04  1.64097998E-03  0.00000000E+00
  7.58106528E-03 -2.29164206E-03  4.71370659E-03  1.84481622E-03  0.00000000E+00
 -3.38526200E-01 -9.14184507E-03  9.98946449E-04 -3.43671262E-03  0.00000000E+00
 -2.89687468E-03 -5.44395806E-03  2.89687468E-03  3.65546728E-03  2.08134585E-04
 -4.17616133E-06  2.64105853E-05  0.00000000E+00  8.58679913E-05 -5.00942376E-05
  4.63217926E-05  2.37301968E-05  0.00000000E+00 -6.42101343E-05 -6.38848093E-05
  8.64059200E-06 -3.65546728E-03 -2.08134585E-04 -4.17616133E-06  2.64105853E-05
  0.00000000E+00  6.38848093E-05 -8.58679913E-05  5.00942376E-05  4.63217926E-05
  2.37301968E-05  0.00000000E+00  6.42101343E-05 -8.64059200E-06 -6.13613599E-01
 -2.39309204E-02  3.62028631E-04  1.64097998E-03  0.00000000E+00  5.44395806E-03
  2.83719112E-02 -7.32033110E-03 -6.42367121E-04 -3.16013730E-03  0.00000000E+00
  3.64646534E-01  1.04286219E-02  7.48341424E-04 -3.38052076E-03  0.00000000E+00
  5.97859967E-01  2.28435068E-02 -5.85937611E-05  1.85761415E-03  0.00000000E+00
  2.83719112E-02 -7.32033110E-03  6.42367121E-04  3.16013730E-03  0.00000000E+00
  3.64646534E-01  1.04286219E-02 -7.48341424E-04  3.38052076E-03  0.00000000E+00
 -3.31792554E-03 -5.46188820E-03 -3.31792554E-03  1.42167117E-02  6.20593532E-04
  1.16643819E-06  1.73116484E-04  0.00000000E+00 -1.08280181E-03 -2.82787226E-04
  4.01765967E-05  1.67006269E-04  0.00000000E+00  7.24582270E-05 -2.20885977E-04
 -1.07942566E-05  1.42167117E-02  6.20593532E-04 -1.16643819E-06 -1.73116484E-04
  0.00000000E+00 -2.20885977E-04 -1.08280181E-03 -2.82787226E-04 -4.01765967E-05
 -1.67006269E-04  0.00000000E+00  7.24582270E-05 -1.07942566E-05  5.97859967E-01