 Entering Gaussian System, Link 0=g09
 Input=dvb_td.gjf
 Output=dvb_td.log
 Initial command:
 /ichec/packages/gaussian/09a02/l1.exe /ichec/scratch/gaussian/Gau-21702.inp -scrdir=/ichec/scratch/gaussian/
 Entering Link 1 = /ichec/packages/gaussian/09a02/l1.exe PID=     21703.
  
 Copyright (c) 1988,1990,1992,1993,1995,1998,2003,2009, Gaussian, Inc.
                  All Rights Reserved.
  
 This is part of the Gaussian(R) 09 program.  It is based on
 the Gaussian(R) 03 system (copyright 2003, Gaussian, Inc.),
 the Gaussian(R) 98 system (copyright 1998, Gaussian, Inc.),
 the Gaussian(R) 94 system (copyright 1995, Gaussian, Inc.),
 the Gaussian 92(TM) system (copyright 1992, Gaussian, Inc.),
 the Gaussian 90(TM) system (copyright 1990, Gaussian, Inc.),
 the Gaussian 88(TM) system (copyright 1988, Gaussian, Inc.),
 the Gaussian 86(TM) system (copyright 1986, Carnegie Mellon
 University), and the Gaussian 82(TM) system (copyright 1983,
 Carnegie Mellon University). Gaussian is a federally registered
 trademark of Gaussian, Inc.
  
 This software contains proprietary and confidential information,
 including trade secrets, belonging to Gaussian, Inc.
  
 This software is provided under written license and may be
 used, copied, transmitted, or stored only in accord with that
 written license.
  
 The following legend is applicable only to US Government
 contracts under FAR:
  
                    RESTRICTED RIGHTS LEGEND
  
 Use, reproduction and disclosure by the US Government is
 subject to restrictions as set forth in subparagraphs (a)
 and (c) of the Commercial Computer Software - Restricted
 Rights clause in FAR 52.227-19.
  
 Gaussian, Inc.
 340 Quinnipiac St., Bldg. 40, Wallingford CT 06492
  
  
 ---------------------------------------------------------------
 Warning -- This program may not be used in any manner that
 competes with the business of Gaussian, Inc. or will provide
 assistance to any competitor of Gaussian, Inc.  The licensee
 of this program is prohibited from giving any competitor of
 Gaussian, Inc. access to this program.  By using this program,
 the user acknowledges that Gaussian, Inc. is engaged in the
 business of creating and licensing software in the field of
 computational chemistry and represents and warrants to the
 licensee that it is not a competitor of Gaussian, Inc. and that
 it will not use this program in any manner prohibited above.
 ---------------------------------------------------------------
  

 Cite this work as:
 Gaussian 09, Revision A.02,
 M. J. Frisch, G. W. Trucks, H. B. Schlegel, G. E. Scuseria, 
 M. A. Robb, J. R. Cheeseman, G. Scalmani, V. Barone, B. Mennucci, 
 G. A. Petersson, H. Nakatsuji, M. Caricato, X. Li, H. P. Hratchian, 
 A. F. Izmaylov, J. Bloino, G. Zheng, J. L. Sonnenberg, M. Hada, 
 M. Ehara, K. Toyota, R. Fukuda, J. Hasegawa, M. Ishida, T. Nakajima, 
 Y. Honda, O. Kitao, H. Nakai, T. Vreven, J. A. Montgomery, Jr., 
 J. E. Peralta, F. Ogliaro, M. Bearpark, J. J. Heyd, E. Brothers, 
 K. N. Kudin, V. N. Staroverov, R. Kobayashi, J. Normand, 
 K. Raghavachari, A. Rendell, J. C. Burant, S. S. Iyengar, J. Tomasi, 
 M. Cossi, N. Rega, J. M. Millam, M. Klene, J. E. Knox, J. B. Cross, 
 V. Bakken, C. Adamo, J. Jaramillo, R. Gomperts, R. E. Stratmann, 
 O. Yazyev, A. J. Austin, R. Cammi, C. Pomelli, J. W. Ochterski, 
 R. L. Martin, K. Morokuma, V. G. Zakrzewski, G. A. Voth, 
 P. Salvador, J. J. Dannenberg, S. Dapprich, A. D. Daniels, 
 O. Farkas, J. B. Foresman, J. V. Ortiz, J. Cioslowski, 
 and D. J. Fox, Gaussian, Inc., Wallingford CT, 2009.
 
 ******************************************
 Gaussian 09:  EM64L-G09RevA.02 11-Jun-2009
                31-Oct-2009 
 ******************************************
 %chk=PhCCCC.chk
 %mem=6GB
 %nproc=8
 Will use up to    8 processors via shared memory.
 ------------------------------------------------------------------
 #p b3lyp/sto-3g guess=read geom=allcheck td(nstates=5) iop(9/40=2)
 ------------------------------------------------------------------
 1/29=7,38=1/1;
 2/12=2,40=1/2;
 3/6=3,11=2,14=-4,16=1,25=1,30=1,74=-5,116=-2/1,2,8,3;
 4/5=1/1;
 5/5=2,38=6/2;
 8/6=1,10=1,108=5/1;
 9/40=2,41=5,42=1/14;
 6/7=2,8=2,9=2,10=2/1;
 99/5=1,9=1/99;
 Leave Link    1 at Sat Oct 31 14:41:05 2009, MaxMem=  805306368 cpu:       0.4
 (Enter /ichec/packages/gaussian/09a02/l101.exe)
 -------------------
 Title Card Required
 -------------------
 Redundant internal coordinates taken from checkpoint file:
 PhCCCC.chk
 Charge =  0 Multiplicity = 1
 C,0,-0.0758147022,0.,0.0269380605
 C,0,-0.0045596386,0.,1.4463041813
 C,0,1.2336805044,0.,2.1042190084
 C,0,2.4572415581,0.,1.3787842089
 C,0,2.3859864946,0.,-0.0405819119
 H,0,-0.9288538056,0.,2.0382912888
 H,0,1.2652335181,0.,3.2024280979
 H,0,3.3102806616,0.,-0.6325690194
 C,0,3.752042586,0.,2.1313241969
 C,0,4.9872240408,0.,1.6008686658
 H,0,5.1663339071,0.,0.5196128923
 H,0,3.6421497462,0.,3.2262297938
 H,0,5.8793431668,0.,2.2379242817
 C,0,-1.37061573,0.,-0.7256019275
 H,0,-1.2607228902,0.,-1.8205075245
 C,0,-2.6057971848,0.,-0.1951463965
 H,0,-2.7849070512,0.,0.8861093771
 H,0,-3.4979163108,0.,-0.8322020124
 C,0,1.1477463516,0.,-0.698496739
 H,0,1.1161933378,0.,-1.7967058285
 Recover connectivity data from disk.
                    Isotopes and Nuclear Properties:
 (Nuclear quadrupole moments (NQMom) in fm**2, nuclear magnetic moments (NMagM)
  in nuclear magnetons)

  Atom         1           2           3           4           5           6           7           8           9          10
 IAtWgt=          12          12          12          12          12           1           1           1          12          12
 AtmWgt=  12.0000000  12.0000000  12.0000000  12.0000000  12.0000000   1.0078250   1.0078250   1.0078250  12.0000000  12.0000000
 NucSpn=           0           0           0           0           0           1           1           1           0           0
 AtZEff=  -3.6000000  -3.6000000  -3.6000000  -3.6000000  -3.6000000  -1.0000000  -1.0000000  -1.0000000  -3.6000000  -3.6000000
 NQMom=    0.0000000   0.0000000   0.0000000   0.0000000   0.0000000   0.0000000   0.0000000   0.0000000   0.0000000   0.0000000
 NMagM=    0.0000000   0.0000000   0.0000000   0.0000000   0.0000000   2.7928460   2.7928460   2.7928460   0.0000000   0.0000000

  Atom        11          12          13          14          15          16          17          18          19          20
 IAtWgt=           1           1           1          12           1          12           1           1          12           1
 AtmWgt=   1.0078250   1.0078250   1.0078250  12.0000000   1.0078250  12.0000000   1.0078250   1.0078250  12.0000000   1.0078250
 NucSpn=           1           1           1           0           1           0           1           1           0           1
 AtZEff=  -1.0000000  -1.0000000  -1.0000000  -3.6000000  -1.0000000  -3.6000000  -1.0000000  -1.0000000  -3.6000000  -1.0000000
 NQMom=    0.0000000   0.0000000   0.0000000   0.0000000   0.0000000   0.0000000   0.0000000   0.0000000   0.0000000   0.0000000
 NMagM=    2.7928460   2.7928460   2.7928460   0.0000000   2.7928460   0.0000000   2.7928460   2.7928460   0.0000000   2.7928460
 Leave Link  101 at Sat Oct 31 14:41:05 2009, MaxMem=  805306368 cpu:       0.9
 (Enter /ichec/packages/gaussian/09a02/l202.exe)
                          Input orientation:                          
 ---------------------------------------------------------------------
 Center     Atomic      Atomic             Coordinates (Angstroms)
 Number     Number       Type             X           Y           Z
 ---------------------------------------------------------------------
      1          6           0       -0.075815    0.000000    0.026938
      2          6           0       -0.004560    0.000000    1.446304
      3          6           0        1.233681    0.000000    2.104219
      4          6           0        2.457242    0.000000    1.378784
      5          6           0        2.385986    0.000000   -0.040582
      6          1           0       -0.928854    0.000000    2.038291
      7          1           0        1.265234    0.000000    3.202428
      8          1           0        3.310281    0.000000   -0.632569
      9          6           0        3.752043    0.000000    2.131324
     10          6           0        4.987224    0.000000    1.600869
     11          1           0        5.166334    0.000000    0.519613
     12          1           0        3.642150    0.000000    3.226230
     13          1           0        5.879343    0.000000    2.237924
     14          6           0       -1.370616    0.000000   -0.725602
     15          1           0       -1.260723    0.000000   -1.820508
     16          6           0       -2.605797    0.000000   -0.195146
     17          1           0       -2.784907    0.000000    0.886109
     18          1           0       -3.497916    0.000000   -0.832202
     19          6           0        1.147746    0.000000   -0.698497
     20          1           0        1.116193    0.000000   -1.796706
 ---------------------------------------------------------------------
                    Distance matrix (angstroms):
                    1          2          3          4          5
     1  C    0.000000
     2  C    1.421154   0.000000
     3  C    2.455580   1.402174   0.000000
     4  C    2.871213   2.462727   1.422448   0.000000
     5  C    2.462727   2.815234   2.434744   1.421154   0.000000
     6  H    2.184769   1.097619   2.163539   3.449723   3.912784
     7  H    3.447049   2.167105   1.098662   2.178660   3.431210
     8  H    3.449723   3.912784   3.435444   2.184769   1.097619
     9  C    4.368173   3.818549   2.518508   1.497607   2.565791
    10  C    5.302039   4.994176   3.787143   2.539711   3.075841
    11  H    5.265249   5.253275   4.239899   2.842069   2.836221
    12  H    4.904970   4.057909   2.656997   2.194781   3.500001
    13  H    6.352351   5.936916   4.647586   3.528300   4.170747
    14  C    1.497607   2.565791   3.845809   4.368173   3.818549
    15  H    2.194781   3.500001   4.650325   4.904970   4.057909
    16  C    2.539711   3.075841   4.475340   5.302039   4.994176
    17  H    2.842069   2.836221   4.199147   5.265249   5.253275
    18  H    3.528300   4.170747   5.568714   6.352351   5.936916
    19  C    1.422448   2.434744   2.804033   2.455580   1.402174
    20  H    2.178660   3.431210   3.902694   3.447049   2.167105
                    6          7          8          9         10
     6  H    0.000000
     7  H    2.483794   0.000000
     8  H    5.010365   4.346196   0.000000
     9  C    4.681821   2.707671   2.798975   0.000000
    10  C    5.932227   4.051939   2.792917   1.344268   0.000000
    11  H    6.281536   4.734562   2.184595   2.144256   1.095990
    12  H    4.722846   2.377035   3.873043   1.100407   2.109745
    13  H    6.811123   4.713839   3.852248   2.129970   1.096228
    14  C    2.798975   4.730446   4.681821   5.865463   6.770125
    15  H    3.873043   5.622307   4.722846   6.383165   7.123388
    16  C    2.792917   5.150572   5.932227   6.770125   7.802541
    17  H    2.184595   4.665723   6.281536   6.654493   7.804928
    18  H    3.852248   6.242262   6.811123   7.832266   8.827086
    19  C    3.435444   3.902694   2.163539   3.845809   4.475340
    20  H    4.346196   5.001355   2.483794   4.730446   5.150572
                   11         12         13         14         15
    11  H    0.000000
    12  H    3.106270   0.000000
    13  H    1.860370   2.445768   0.000000
    14  C    6.654493   6.383165   7.832266   0.000000
    15  H    6.839826   7.036172   8.212881   1.100407   0.000000
    16  C    7.804928   7.123388   8.827086   1.344268   2.109745
    17  H    7.959683   6.839826   8.769073   2.144256   3.106270
    18  H    8.769073   8.212881   9.867050   2.129970   2.445768
    19  C    4.199147   4.650325   5.568714   2.518508   2.656997
    20  H    4.665723   5.622307   6.242262   2.707671   2.377035
                   16         17         18         19         20
    16  C    0.000000
    17  H    1.095990   0.000000
    18  H    1.096228   1.860370   0.000000
    19  C    3.787143   4.239899   4.647586   0.000000
    20  H    4.051939   4.734562   4.713839   1.098662   0.000000
 Stoichiometry    C10H10
 Framework group  C2H[SGH(C10H10)]
 Deg. of freedom    19
 Full point group                 C2H     NOp   4
 Largest Abelian subgroup         C2H     NOp   4
 Largest concise Abelian subgroup C2      NOp   2
                         Standard orientation:                         
 ---------------------------------------------------------------------
 Center     Atomic      Atomic             Coordinates (Angstroms)
 Number     Number       Type             X           Y           Z
 ---------------------------------------------------------------------
      1          6           0        0.269481   -1.410087    0.000000
      2          6           0       -1.064752   -0.920700    0.000000
      3          6           0       -1.325434    0.457029    0.000000
      4          6           0       -0.269481    1.410087    0.000000
      5          6           0        1.064752    0.920700    0.000000
      6          1           0       -1.904435   -1.627596    0.000000
      7          1           0       -2.364772    0.813167    0.000000
      8          1           0        1.904435    1.627596    0.000000
      9          6           0       -0.603732    2.869917    0.000000
     10          6           0        0.269481    3.891952    0.000000
     11          1           0        1.355166    3.742013    0.000000
     12          1           0       -1.681904    3.090004    0.000000
     13          1           0       -0.074029    4.932969    0.000000
     14          6           0        0.603732   -2.869917    0.000000
     15          1           0        1.681904   -3.090004    0.000000
     16          6           0       -0.269481   -3.891952    0.000000
     17          1           0       -1.355166   -3.742013    0.000000
     18          1           0        0.074029   -4.932969    0.000000
     19          6           0        1.325434   -0.457029    0.000000
     20          1           0        2.364772   -0.813167    0.000000
 ---------------------------------------------------------------------
 Rotational constants (GHZ):      4.6264904      0.6849397      0.5966127
 Leave Link  202 at Sat Oct 31 14:41:06 2009, MaxMem=  805306368 cpu:       0.2
 (Enter /ichec/packages/gaussian/09a02/l301.exe)
 Standard basis: STO-3G (5D, 7F)
 Ernie: Thresh=  0.10000D-02 Tol=  0.10000D-05 Strict=F.
 There are    25 symmetry adapted basis functions of AG  symmetry.
 There are     5 symmetry adapted basis functions of BG  symmetry.
 There are     5 symmetry adapted basis functions of AU  symmetry.
 There are    25 symmetry adapted basis functions of BU  symmetry.
 Integral buffers will be    131072 words long.
 Raffenetti 2 integral format.
 Two-electron integral symmetry is turned on.
    60 basis functions,   180 primitive gaussians,    60 cartesian basis functions
    35 alpha electrons       35 beta electrons
       nuclear repulsion energy       445.8993233835 Hartrees.
 IExCor=  402 DFT=T Ex+Corr=B3LYP ExCW=0 ScaHFX=  0.200000
 ScaDFX=  0.800000  0.720000  1.000000  0.810000 ScalE2=  1.000000  1.000000
 IRadAn=      0 IRanWt=     -1 IRanGd=            0 ICorTp=0
 NAtoms=   20 NActive=   20 NUniq=   10 SFac= 3.00D+00 NAtFMM=   80 NAOKFM=F Big=F
 Leave Link  301 at Sat Oct 31 14:41:06 2009, MaxMem=  805306368 cpu:       0.6
 (Enter /ichec/packages/gaussian/09a02/l302.exe)
 NPDir=0 NMtPBC=     1 NCelOv=     1 NCel=       1 NClECP=     1 NCelD=      1
         NCelK=      1 NCelE2=     1 NClLst=     1 CellRange=     0.0.
 One-electron integrals computed using PRISM.
 One-electron integral symmetry used in STVInt
 NBasis=    60 RedAO= T  NBF=    25     5     5    25
 NBsUse=    60 1.00D-06 NBFU=    25     5     5    25
 Precomputing XC quadrature grid using
 IXCGrd= 2 IRadAn=           0 IRanWt=          -1 IRanGd=           0 AccXCQ= 1.00D-10.
 NRdTot=    1260 NPtTot=      160388 NUsed=      169481 NTot=      169513
 NSgBfM=    59    59    59    59    59 NAtAll=    20    20.
 Leave Link  302 at Sat Oct 31 14:41:06 2009, MaxMem=  805306368 cpu:       1.8
 (Enter /ichec/packages/gaussian/09a02/l308.exe)
 Leave Link  308 at Sat Oct 31 14:41:07 2009, MaxMem=  805306368 cpu:       1.0
 (Enter /ichec/packages/gaussian/09a02/l303.exe)
 DipDrv:  MaxL=1.
 Leave Link  303 at Sat Oct 31 14:41:07 2009, MaxMem=  805306368 cpu:       0.9
 (Enter /ichec/packages/gaussian/09a02/l401.exe)
 Initial guess read from the checkpoint file:  PhCCCC.chk
 B after Tr=     0.000000    0.000000    0.000000
         Rot=    1.000000    0.000000    0.000000    0.000000 Ang=   0.00 deg.
 Guess basis will be translated and rotated to current coordinates.
 Initial guess orbital symmetries:
       Occupied  (BU) (AG) (BU) (AG) (BU) (AG) (BU) (AG) (BU) (AG)
                 (AG) (BU) (AG) (BU) (BU) (AG) (AG) (BU) (AG) (AG)
                 (BU) (BU) (BU) (AG) (BU) (BU) (AG) (AU) (BU) (AG)
                 (AG) (BG) (AU) (BG) (BG)
       Virtual   (AU) (AU) (BG) (AU) (BG) (AG) (BU) (BU) (AG) (AG)
                 (BU) (BU) (AG) (BU) (AG) (AG) (BU) (AG) (BU) (BU)
                 (AG) (AG) (BU) (AG) (BU)
 The electronic state of the initial guess is 1-AG.
 Leave Link  401 at Sat Oct 31 14:41:07 2009, MaxMem=  805306368 cpu:       1.2
 (Enter /ichec/packages/gaussian/09a02/l502.exe)
 Closed shell SCF:
 Requested convergence on RMS density matrix=1.00D-08 within 128 cycles.
 Requested convergence on MAX density matrix=1.00D-06.
 Requested convergence on             energy=1.00D-06.
 No special actions if energy rises.
 Using DIIS extrapolation, IDIIS=  1040.
 Integral symmetry usage will be decided dynamically.
       169288 words used for storage of precomputed grid.
 Keep R1 ints in memory in canonical form, NReq=2755755.
 IEnd=      199354 IEndB=      199354 NGot=   805306368 MDV=   803451922
 LenX=   803451922 LenY=   803447881
 Symmetry not used in FoFDir.
 MinBra= 0 MaxBra= 1 Meth= 1.
 IRaf=       0 NMat=   1 IRICut=       1 DoRegI=T DoRafI=F ISym2E= 0 JSym2E=0.

 Cycle   1  Pass 1  IDiag  1:
 E= -382.308266579706    
 DIIS: error= 1.09D-08 at cycle   1 NSaved=   1.
 NSaved= 1 IEnMin= 1 EnMin= -382.308266579706     IErMin= 1 ErrMin= 1.09D-08
 ErrMax= 1.09D-08 EMaxC= 1.00D-01 BMatC= 4.21D-15 BMatP= 4.21D-15
 IDIUse=1 WtCom= 1.00D+00 WtEn= 0.00D+00
 Coeff-Com:  0.100D+01
 Coeff:      0.100D+01
 Gap=     0.191 Goal=   None    Shift=    0.000
 RMSDP=3.08D-09 MaxDP=5.51D-08              OVMax= 1.05D-08

 SCF Done:  E(RB3LYP) =  -382.308266580     A.U. after    1 cycles
             Convg  =    0.3084D-08             -V/T =  2.0172
 KE= 3.758473463598D+02 PE=-1.776414676591D+03 EE= 5.723597402685D+02
 Leave Link  502 at Sat Oct 31 14:41:08 2009, MaxMem=  805306368 cpu:       3.2
 (Enter /ichec/packages/gaussian/09a02/l801.exe)
 ExpMin= 1.69D-01 ExpMax= 7.16D+01 ExpMxC= 7.16D+01 IAcc=1 IRadAn=         1 AccDes= 0.00D+00
 HarFok:  IExCor=  205 AccDes= 0.00D+00 IRadAn=         1 IDoV=-2
 ScaDFX=  1.000000  1.000000  1.000000  1.000000
 Largest valence mixing into a core orbital is  2.41D-04
 Largest core mixing into a valence orbital is  2.85D-04
 Range of M.O.s used for correlation:    11    60
 NBasis=    60 NAE=    35 NBE=    35 NFC=    10 NFV=     0
 NROrb=     50 NOA=    25 NOB=    25 NVA=    25 NVB=    25
 Leave Link  801 at Sat Oct 31 14:41:08 2009, MaxMem=  805306368 cpu:       2.2
 (Enter /ichec/packages/gaussian/09a02/l914.exe)
 RHF ground state
 MDV=   805306368 DFT=T DoStab=F Mixed=T DoRPA=T DoScal=F NonHer=T
 Keep R1, R2, and R3 ints in memory in canonical form, NReq=17741076.
 Symmetry not used in FoFDir.
 MinBra= 0 MaxBra= 1 Meth= 1.
 IRaf=       0 NMat=   1 IRICut=       1 DoRegI=T DoRafI=F ISym2E= 0 JSym2E=0.
 Making orbital integer symmetry assigments:
 Orbital symmetries:
       Occupied  (BU) (AG) (BU) (AG) (BU) (AG) (BU) (AG) (BU) (AG)
                 (AG) (BU) (AG) (BU) (BU) (AG) (AG) (BU) (AG) (AG)
                 (BU) (BU) (BU) (AG) (BU) (BU) (AG) (AU) (BU) (AG)
                 (AG) (BG) (AU) (BG) (BG)
       Virtual   (AU) (AU) (BG) (AU) (BG) (AG) (BU) (BU) (AG) (AG)
                 (BU) (BU) (AG) (BU) (AG) (AG) (BU) (AG) (BU) (BU)
                 (AG) (AG) (BU) (AG) (BU)
    20 initial guesses have been made.
 Convergence on wavefunction:    0.001000000000000
 Davidson Disk Diagonalization:  ConvIn= 1.00D-03 SkipCon=T Conv= 1.00D-03.
 Max sub-space:   200 roots to seek:    20 dimension of matrix:   1250
 Iteration     1 Dimension    20 NMult    20
 Cannot handle 2e integral symmetry, ISym2E=1.
 CISAX:  IP=  8 NPass=   1 NMax=    20.
 CISAX will form    20 AO SS matrices at one time.
 NMat=    20 NSing=    20.
 Cannot handle 2e integral symmetry, ISym2E=1.
 CISAX:  IP=  8 NPass=   1 NMax=    20.
 CISAX will form    20 AO SS matrices at one time.
 NMat=    20 NSing=    20.
 New state      1 was old state      2
 New state      2 was old state      1
 New state      3 was old state      4
 New state      4 was old state      3
 No map to state      5
 Excitation Energies [eV] at current iteration:
 Root      1 :     5.352635165958054
 Root      2 :     5.877869915966690
 Root      3 :     6.247765616889845
 Root      4 :     7.151192349584425
 Root      5 :     7.422145970335415
 Iteration     2 Dimension    30 NMult    30
 Cannot handle 2e integral symmetry, ISym2E=1.
 CISAX:  IP=  1 NPass=   1 NMax=    10.
 CISAX will form    10 AO SS matrices at one time.
 NMat=    10 NSing=    10.
 Cannot handle 2e integral symmetry, ISym2E=1.
 CISAX:  IP=  1 NPass=   1 NMax=    10.
 CISAX will form    10 AO SS matrices at one time.
 NMat=    10 NSing=    10.
 Root      1 not converged, maximum delta is    0.176513643413621
 Root      2 not converged, maximum delta is    0.151133635943495
 Root      3 not converged, maximum delta is    0.050370547423195
 Root      4 not converged, maximum delta is    0.101425873966488
 Root      5 not converged, maximum delta is    0.047071516519851
 Excitation Energies [eV] at current iteration:
 Root      1 :     5.336976050356972   Change is   -0.015659115601083
 Root      2 :     5.386557837129464   Change is   -0.491312078837225
 Root      3 :     6.218148078491459   Change is   -0.029617538398386
 Root      4 :     6.778745514086148   Change is   -0.372446835498277
 Root      5 :     7.417102981425090   Change is   -0.005042988910325
 Iteration     3 Dimension    40 NMult    40
 Cannot handle 2e integral symmetry, ISym2E=1.
 CISAX:  IP=  1 NPass=   1 NMax=    10.
 CISAX will form    10 AO SS matrices at one time.
 NMat=    10 NSing=    10.
 Cannot handle 2e integral symmetry, ISym2E=1.
 CISAX:  IP=  1 NPass=   1 NMax=    10.
 CISAX will form    10 AO SS matrices at one time.
 NMat=    10 NSing=    10.
 Root      1 not converged, maximum delta is    0.055590075112926
 Root      2 not converged, maximum delta is    0.048694552828524
 Root      3 not converged, maximum delta is    0.008986091411652
 Root      4 not converged, maximum delta is    0.005970068359811
 Root      5 not converged, maximum delta is    0.099488908836993
 Excitation Energies [eV] at current iteration:
 Root      1 :     5.335183914503497   Change is   -0.001792135853475
 Root      2 :     5.375273209436922   Change is   -0.011284627692542
 Root      3 :     6.215322173523669   Change is   -0.002825904967790
 Root      4 :     6.773117226168473   Change is   -0.005628287917675
 Root      5 :     7.413859005144302   Change is   -0.003243976280788
 Iteration     4 Dimension    50 NMult    50
 Cannot handle 2e integral symmetry, ISym2E=1.
 CISAX:  IP=  1 NPass=   1 NMax=    10.
 CISAX will form    10 AO SS matrices at one time.
 NMat=    10 NSing=    10.
 Cannot handle 2e integral symmetry, ISym2E=1.
 CISAX:  IP=  1 NPass=   1 NMax=    10.
 CISAX will form    10 AO SS matrices at one time.
 NMat=    10 NSing=    10.
 Root      1 not converged, maximum delta is    0.003721389136893
 Root      2 not converged, maximum delta is    0.003136935805008
 Root      3 has converged.
 Root      4 has converged.
 Root      5 not converged, maximum delta is    0.048559583082002
 Excitation Energies [eV] at current iteration:
 Root      1 :     5.335067271508586   Change is   -0.000116642994911
 Root      2 :     5.374675949310839   Change is   -0.000597260126083
 Root      3 :     6.215241242882778   Change is   -0.000080930640891
 Root      4 :     6.773028710788626   Change is   -0.000088515379847
 Root      5 :     7.412405997160039   Change is   -0.001453007984264
 Iteration     5 Dimension    56 NMult    56
 Cannot handle 2e integral symmetry, ISym2E=1.
 CISAX:  IP=  1 NPass=   1 NMax=     6.
 CISAX will form     6 AO SS matrices at one time.
 NMat=     6 NSing=     6.
 Cannot handle 2e integral symmetry, ISym2E=1.
 CISAX:  IP=  1 NPass=   1 NMax=     6.
 CISAX will form     6 AO SS matrices at one time.
 NMat=     6 NSing=     6.
 Root      1 has converged.
 Root      2 has converged.
 Root      3 has converged.
 Root      4 has converged.
 Root      5 not converged, maximum delta is    0.004042302678395
 Excitation Energies [eV] at current iteration:
 Root      1 :     5.335065111183573   Change is   -0.000002160325013
 Root      2 :     5.374665188963844   Change is   -0.000010760346995
 Root      3 :     6.215240694719380   Change is   -0.000000548163397
 Root      4 :     6.773028193420025   Change is   -0.000000517368601
 Root      5 :     7.412304825558250   Change is   -0.000101171601789
 Iteration     6 Dimension    58 NMult    58
 Cannot handle 2e integral symmetry, ISym2E=1.
 CISAX:  IP=  1 NPass=   1 NMax=     2.
 CISAX will form     2 AO SS matrices at one time.
 NMat=     2 NSing=     2.
 Cannot handle 2e integral symmetry, ISym2E=1.
 CISAX:  IP=  1 NPass=   1 NMax=     2.
 CISAX will form     2 AO SS matrices at one time.
 NMat=     2 NSing=     2.
 Root      1 has converged.
 Root      2 has converged.
 Root      3 has converged.
 Root      4 has converged.
 Root      5 has converged.
 Excitation Energies [eV] at current iteration:
 Root      1 :     5.335065111183575   Change is    0.000000000000002
 Root      2 :     5.374665188963830   Change is   -0.000000000000014
 Root      3 :     6.215240526463698   Change is   -0.000000168255683
 Root      4 :     6.773028193420009   Change is   -0.000000000000016
 Root      5 :     7.412297041520542   Change is   -0.000007784037708
 Convergence achieved on expansion vectors.
 ***********************************************************************
 Excited states from <AA,BB:AA,BB> singles matrix:
 ***********************************************************************
 
 1PDM for each excited state written to RWF  633
 Ground to excited state transition electric dipole moments (Au):
       state          X           Y           Z        Dip. S.      Osc.
         1         0.1090      1.1336      0.0000      1.2970      0.1695
         2         0.0383     -2.2704      0.0000      5.1560      0.6789
         3         0.0000      0.0000      0.0000      0.0000      0.0000
         4        -0.9489     -0.4246      0.0000      1.0806      0.1793
         5         0.0000      0.0000      0.0000      0.0000      0.0000
 Ground to excited state transition velocity dipole moments (Au):
       state          X           Y           Z        Dip. S.      Osc.
         1        -0.0175     -0.1468      0.0000      0.0219      0.0743
         2        -0.0046      0.2950      0.0000      0.0871      0.2939
         3         0.0000      0.0000      0.0000      0.0000      0.0000
         4         0.1491      0.0595      0.0000      0.0258      0.0690
         5         0.0000      0.0000      0.0000      0.0000      0.0000
 Ground to excited state transition magnetic dipole moments (Au):
       state          X           Y           Z
         1         0.0000      0.0000      0.0000
         2         0.0000      0.0000      0.0000
         3         0.0000      0.0000     -0.1266
         4         0.0000      0.0000      0.0000
         5         0.0000      0.0000      0.5196
 <0|del|b> * <b|rxdel|0> + <0|del|b> * <b|delr+rdel|0>
 Rotatory Strengths (R) in cgs (10**-40 erg-esu-cm/Gauss)
       state          XX          YY          ZZ    R(velocity)
         1         0.0000      0.0000      0.0000      0.0000
 Total R(velocity) tensor for State=          1
                 1             2             3 
      1   0.000000D+00  0.000000D+00  0.000000D+00
      2   0.000000D+00  0.000000D+00  0.000000D+00
      3   0.000000D+00  0.000000D+00  0.000000D+00
 R(velocity) tensor in inp. orien. for State=          1
                 1             2             3 
      1   0.000000D+00  0.000000D+00  0.000000D+00
      2   0.000000D+00  0.000000D+00  0.000000D+00
      3   0.000000D+00  0.000000D+00  0.000000D+00
         2         0.0000      0.0000      0.0000      0.0000
 Total R(velocity) tensor for State=          2
                 1             2             3 
      1   0.000000D+00  0.000000D+00  0.000000D+00
      2   0.000000D+00  0.000000D+00  0.000000D+00
      3   0.000000D+00  0.000000D+00  0.000000D+00
 R(velocity) tensor in inp. orien. for State=          2
                 1             2             3 
      1   0.000000D+00  0.000000D+00  0.000000D+00
      2   0.000000D+00  0.000000D+00  0.000000D+00
      3   0.000000D+00  0.000000D+00  0.000000D+00
         3         0.0000      0.0000      0.0000      0.0000
 Total R(velocity) tensor for State=          3
                 1             2             3 
      1   0.000000D+00  0.000000D+00  0.000000D+00
      2   0.000000D+00  0.000000D+00  0.000000D+00
      3   0.000000D+00  0.000000D+00  0.000000D+00
 R(velocity) tensor in inp. orien. for State=          3
                 1             2             3 
      1   0.000000D+00  0.000000D+00  0.000000D+00
      2   0.000000D+00  0.000000D+00  0.000000D+00
      3   0.000000D+00  0.000000D+00  0.000000D+00
         4         0.0000      0.0000      0.0000      0.0000
 Total R(velocity) tensor for State=          4
                 1             2             3 
      1   0.000000D+00  0.000000D+00  0.000000D+00
      2   0.000000D+00  0.000000D+00  0.000000D+00
      3   0.000000D+00  0.000000D+00  0.000000D+00
 R(velocity) tensor in inp. orien. for State=          4
                 1             2             3 
      1   0.000000D+00  0.000000D+00  0.000000D+00
      2   0.000000D+00  0.000000D+00  0.000000D+00
      3   0.000000D+00  0.000000D+00  0.000000D+00
         5         0.0000      0.0000      0.0000      0.0000
 Total R(velocity) tensor for State=          5
                 1             2             3 
      1   0.000000D+00  0.000000D+00  0.000000D+00
      2   0.000000D+00  0.000000D+00  0.000000D+00
      3   0.000000D+00  0.000000D+00  0.000000D+00
 R(velocity) tensor in inp. orien. for State=          5
                 1             2             3 
      1   0.000000D+00  0.000000D+00  0.000000D+00
      2   0.000000D+00  0.000000D+00  0.000000D+00
      3   0.000000D+00  0.000000D+00  0.000000D+00
 1/2[<0|r|b>*<b|rxdel|0> + (<0|rxdel|b>*<b|r|0>)*]
 Rotatory Strengths (R) in cgs (10**-40 erg-esu-cm/Gauss)
       state          XX          YY          ZZ     R(length)     R(au)
         1         0.0000      0.0000      0.0000      0.0000      0.0000
         2         0.0000      0.0000      0.0000      0.0000      0.0000
         3         0.0000      0.0000      0.0000      0.0000      0.0000
         4         0.0000      0.0000      0.0000      0.0000      0.0000
         5         0.0000      0.0000      0.0000      0.0000      0.0000
  1/2[<0|del|b>*<b|r|0> + (<0|r|b>*<b|del|0>)*] (Au)
       state          X           Y           Z        Dip. S.   Osc.(frdel)
         1        -0.0019     -0.1664      0.0000      0.1683      0.1122
         2        -0.0002     -0.6698      0.0000      0.6700      0.4467
         3         0.0000      0.0000      0.0000      0.0000      0.0000
         4        -0.1415     -0.0253      0.0000      0.1668      0.1112
         5         0.0000      0.0000      0.0000      0.0000      0.0000
 Ground to excited state transition densities written to RWF  633

 Excitation energies and oscillator strengths:
 
 Excited State   1:      Singlet-BU     5.3351 eV  232.39 nm  f=0.1695  <S**2>=0.000
      32 -> 37        -0.04472
      32 -> 39        -0.01252
      33 -> 38         0.01870
      34 -> 36         0.48186
      34 -> 37         0.03725
      34 -> 39         0.02695
      35 -> 36        -0.30975
      35 -> 37         0.41032
      35 <- 36         0.03717
      35 <- 37         0.01304
 This state for optimization and/or second-order correction.
 Total Energy, E(TD-HF/TD-KS) =  -382.112206536    
 Copying the excited state density for this state as the 1-particle RhoCI density.
 
 Excited State   2:      Singlet-BU     5.3747 eV  230.68 nm  f=0.6789  <S**2>=0.000
      21 -> 44        -0.01025
      23 -> 45        -0.01116
      26 -> 50        -0.01327
      26 -> 57        -0.01013
      28 -> 40         0.01890
      29 -> 51        -0.01507
      30 -> 42         0.01267
      30 -> 52         0.01248
      31 -> 42         0.01382
      31 -> 43        -0.01071
      31 -> 52         0.01207
      31 -> 55        -0.01178
      32 -> 37        -0.02353
      32 -> 39         0.02887
      33 -> 38        -0.04017
      34 -> 36         0.25932
      34 -> 37        -0.05987
      35 -> 36         0.63256
      35 -> 37         0.17344
      28 <- 40         0.01189
      32 <- 39         0.01389
      33 <- 38        -0.02082
      34 <- 37        -0.01063
      35 <- 36        -0.07883
 
 Excited State   3:      Singlet-AG     6.2152 eV  199.48 nm  f=0.0000  <S**2>=0.000
      32 -> 38         0.02747
      32 -> 40         0.01176
      33 -> 36         0.56417
      33 -> 39         0.04628
      35 -> 38        -0.42280
      35 <- 38        -0.01376
 
 Excited State   4:      Singlet-BU     6.7730 eV  183.06 nm  f=0.1793  <S**2>=0.000
      17 -> 46        -0.01180
      19 -> 42         0.01413
      22 -> 53        -0.01025
      23 -> 48        -0.01457
      23 -> 51        -0.01045
      25 -> 51        -0.01920
      26 -> 48         0.01825
      26 -> 50        -0.01119
      26 -> 51         0.01238
      29 -> 53         0.01089
      30 -> 42         0.01859
      30 -> 43        -0.01211
      30 -> 49        -0.01310
      30 -> 52         0.01568
      30 -> 54         0.01373
      31 -> 46        -0.01085
      31 -> 47        -0.01283
      31 -> 54         0.01345
      31 -> 55         0.01377
      31 -> 60         0.01329
      32 -> 37         0.14582
      33 -> 38        -0.02315
      34 -> 36        -0.42641
      34 -> 37        -0.01761
      34 -> 39         0.11818
      35 -> 36         0.02944
      35 -> 37         0.53275
      25 <- 51        -0.01043
      32 <- 37         0.02932
      34 <- 36         0.05519
      34 <- 39         0.02884
      35 <- 37        -0.05283
 
 Excited State   5:      Singlet-AG     7.4123 eV  167.27 nm  f=0.0000  <S**2>=0.000
      32 -> 38         0.04325
      33 -> 36        -0.15294
      33 -> 37         0.56110
      33 -> 39        -0.03001
      34 -> 38         0.34324
      34 -> 40         0.01759
      35 -> 38        -0.20224
      33 <- 36         0.02335
      35 <- 38         0.02268
 SavETr:  write IOETrn=   770 NScale= 10 NData=  16 NLR=1 LETran=     100.
 Leave Link  914 at Sat Oct 31 14:41:23 2009, MaxMem=  805306368 cpu:     109.1
 (Enter /ichec/packages/gaussian/09a02/l601.exe)
 Copying SCF densities to generalized density rwf, IOpCl= 0 IROHF=0.

 **********************************************************************

            Population analysis using the SCF density.

 **********************************************************************

 Orbital symmetries:
       Occupied  (BU) (AG) (BU) (AG) (BU) (AG) (BU) (AG) (BU) (AG)
                 (AG) (BU) (AG) (BU) (BU) (AG) (AG) (BU) (AG) (AG)
                 (BU) (BU) (BU) (AG) (BU) (BU) (AG) (AU) (BU) (AG)
                 (AG) (BG) (AU) (BG) (BG)
       Virtual   (AU) (AU) (BG) (AU) (BG) (AG) (BU) (BU) (AG) (AG)
                 (BU) (BU) (AG) (BU) (AG) (AG) (BU) (AG) (BU) (BU)
                 (AG) (AG) (BU) (AG) (BU)
 The electronic state is 1-AG.
 Alpha  occ. eigenvalues --  -10.02021 -10.02016 -10.00812 -10.00811 -10.00679
 Alpha  occ. eigenvalues --  -10.00678 -10.00605 -10.00591  -9.99233  -9.99233
 Alpha  occ. eigenvalues --   -0.80951  -0.75399  -0.71797  -0.69978  -0.66751
 Alpha  occ. eigenvalues --   -0.58869  -0.55892  -0.53167  -0.51017  -0.45744
 Alpha  occ. eigenvalues --   -0.43936  -0.41060  -0.39796  -0.39607  -0.37397
 Alpha  occ. eigenvalues --   -0.35115  -0.34729  -0.32451  -0.31125  -0.29278
 Alpha  occ. eigenvalues --   -0.28746  -0.26355  -0.21245  -0.19505  -0.15308
 Alpha virt. eigenvalues --    0.03742   0.09036   0.11061   0.18220   0.27253
 Alpha virt. eigenvalues --    0.33223   0.34073   0.37936   0.38145   0.41097
 Alpha virt. eigenvalues --    0.41195   0.42676   0.43964   0.45276   0.47826
 Alpha virt. eigenvalues --    0.52624   0.54582   0.57601   0.59944   0.62498
 Alpha virt. eigenvalues --    0.63971   0.68279   0.71724   0.77956   0.79458
          Condensed to atoms (all electrons):
              1          2          3          4          5          6
     1  C    4.778705   0.488325  -0.027150  -0.009776  -0.026980  -0.024562
     2  C    0.488325   4.810688   0.508956  -0.026980  -0.010504   0.387880
     3  C   -0.027150   0.508956   4.815060   0.488800  -0.030712  -0.025274
     4  C   -0.009776  -0.026980   0.488800   4.778705   0.488325   0.001331
     5  C   -0.026980  -0.010504  -0.030712   0.488325   4.810688   0.000032
     6  H   -0.024562   0.387880  -0.025274   0.001331   0.000032   0.586985
     7  H    0.001335  -0.025206   0.387925  -0.025304   0.001342  -0.003825
     8  H    0.001331   0.000032   0.001346  -0.024562   0.387880   0.000002
     9  C    0.000016   0.000818  -0.028765   0.411854  -0.024071  -0.000015
    10  C    0.000000  -0.000007   0.000680  -0.023794  -0.003969   0.000000
    11  H    0.000000   0.000000   0.000013  -0.003533  -0.000563   0.000000
    12  H   -0.000001   0.000022  -0.003962  -0.026070   0.001086  -0.000002
    13  H    0.000000   0.000000  -0.000016   0.001320   0.000018   0.000000
    14  C    0.411854  -0.024071   0.000749   0.000016   0.000818  -0.003040
    15  H   -0.026070   0.001086  -0.000017  -0.000001   0.000022   0.000019
    16  C   -0.023794  -0.003969   0.000015   0.000000  -0.000007  -0.000607
    17  H   -0.003533  -0.000563  -0.000012   0.000000   0.000000   0.000563
    18  H    0.001320   0.000018   0.000000   0.000000   0.000000  -0.000017
    19  C    0.488800  -0.030712  -0.011068  -0.027150   0.508956   0.001346
    20  H   -0.025304   0.001342   0.000039   0.001335  -0.025206  -0.000034
              7          8          9         10         11         12
     1  C    0.001335   0.001331   0.000016   0.000000   0.000000  -0.000001
     2  C   -0.025206   0.000032   0.000818  -0.000007   0.000000   0.000022
     3  C    0.387925   0.001346  -0.028765   0.000680   0.000013  -0.003962
     4  C   -0.025304  -0.024562   0.411854  -0.023794  -0.003533  -0.026070
     5  C    0.001342   0.387880  -0.024071  -0.003969  -0.000563   0.001086
     6  H   -0.003825   0.000002  -0.000015   0.000000   0.000000  -0.000002
     7  H    0.588889  -0.000034  -0.003903   0.000029   0.000001   0.001033
     8  H   -0.000034   0.586985  -0.003040  -0.000607   0.000563   0.000019
     9  C   -0.003903  -0.003040   4.798257   0.586097  -0.023816   0.386255
    10  C    0.000029  -0.000607   0.586097   4.849814   0.385952  -0.027659
    11  H    0.000001   0.000563  -0.023816   0.385952   0.586746   0.002044
    12  H    0.001033   0.000019   0.386255  -0.027659   0.002044   0.595454
    13  H   -0.000002  -0.000017  -0.024045   0.388265  -0.023727  -0.005090
    14  C   -0.000014  -0.000015   0.000000   0.000000   0.000000   0.000000
    15  H    0.000000  -0.000002   0.000000   0.000000   0.000000   0.000000
    16  C    0.000000   0.000000   0.000000   0.000000   0.000000   0.000000
    17  H    0.000002   0.000000   0.000000   0.000000   0.000000   0.000000
    18  H    0.000000   0.000000   0.000000   0.000000   0.000000   0.000000
    19  C    0.000039  -0.025274   0.000749   0.000015  -0.000012  -0.000017
    20  H    0.000002  -0.003825  -0.000014   0.000000   0.000002   0.000000
             13         14         15         16         17         18
     1  C    0.000000   0.411854  -0.026070  -0.023794  -0.003533   0.001320
     2  C    0.000000  -0.024071   0.001086  -0.003969  -0.000563   0.000018
     3  C   -0.000016   0.000749  -0.000017   0.000015  -0.000012   0.000000
     4  C    0.001320   0.000016  -0.000001   0.000000   0.000000   0.000000
     5  C    0.000018   0.000818   0.000022  -0.000007   0.000000   0.000000
     6  H    0.000000  -0.003040   0.000019  -0.000607   0.000563  -0.000017
     7  H   -0.000002  -0.000014   0.000000   0.000000   0.000002   0.000000
     8  H   -0.000017  -0.000015  -0.000002   0.000000   0.000000   0.000000
     9  C   -0.024045   0.000000   0.000000   0.000000   0.000000   0.000000
    10  C    0.388265   0.000000   0.000000   0.000000   0.000000   0.000000
    11  H   -0.023727   0.000000   0.000000   0.000000   0.000000   0.000000
    12  H   -0.005090   0.000000   0.000000   0.000000   0.000000   0.000000
    13  H    0.583948   0.000000   0.000000   0.000000   0.000000   0.000000
    14  C    0.000000   4.798257   0.386255   0.586097  -0.023816  -0.024045
    15  H    0.000000   0.386255   0.595454  -0.027659   0.002044  -0.005090
    16  C    0.000000   0.586097  -0.027659   4.849814   0.385952   0.388265
    17  H    0.000000  -0.023816   0.002044   0.385952   0.586746  -0.023727
    18  H    0.000000  -0.024045  -0.005090   0.388265  -0.023727   0.583948
    19  C    0.000000  -0.028765  -0.003962   0.000680   0.000013  -0.000016
    20  H    0.000000  -0.003903   0.001033   0.000029   0.000001  -0.000002
             19         20
     1  C    0.488800  -0.025304
     2  C   -0.030712   0.001342
     3  C   -0.011068   0.000039
     4  C   -0.027150   0.001335
     5  C    0.508956  -0.025206
     6  H    0.001346  -0.000034
     7  H    0.000039   0.000002
     8  H   -0.025274  -0.003825
     9  C    0.000749  -0.000014
    10  C    0.000015   0.000000
    11  H   -0.000012   0.000002
    12  H   -0.000017   0.000000
    13  H    0.000000   0.000000
    14  C   -0.028765  -0.003903
    15  H   -0.003962   0.001033
    16  C    0.000680   0.000029
    17  H    0.000013   0.000001
    18  H   -0.000016  -0.000002
    19  C    4.815060   0.387925
    20  H    0.387925   0.588889
 Mulliken atomic charges:
              1
     1  C   -0.004513
     2  C   -0.077155
     3  C   -0.076609
     4  C   -0.004513
     5  C   -0.077155
     6  H    0.079219
     7  H    0.077691
     8  H    0.079219
     9  C   -0.076378
    10  C   -0.154816
    11  H    0.076330
    12  H    0.076886
    13  H    0.079346
    14  C   -0.076378
    15  H    0.076886
    16  C   -0.154816
    17  H    0.076330
    18  H    0.079346
    19  C   -0.076609
    20  H    0.077691
 Sum of Mulliken atomic charges =   0.00000
 Mulliken charges with hydrogens summed into heavy atoms:
              1
     1  C   -0.004513
     2  C    0.002064
     3  C    0.001081
     4  C   -0.004513
     5  C    0.002064
     9  C    0.000508
    10  C    0.000860
    14  C    0.000508
    16  C    0.000860
    19  C    0.001081
 Sum of Mulliken charges with hydrogens summed into heavy atoms =   0.00000
 Electronic spatial extent (au):  <R**2>=           1861.7257
 Charge=              0.0000 electrons
 Dipole moment (field-independent basis, Debye):
    X=              0.0000    Y=              0.0000    Z=              0.0000  Tot=              0.0000
 Quadrupole moment (field-independent basis, Debye-Ang):
   XX=            -50.2216   YY=            -50.7167   ZZ=            -58.6254
   XY=             -0.0592   XZ=              0.0000   YZ=              0.0000
 Traceless Quadrupole moment (field-independent basis, Debye-Ang):
   XX=              2.9663   YY=              2.4712   ZZ=             -5.4375
   XY=             -0.0592   XZ=              0.0000   YZ=              0.0000
 Octapole moment (field-independent basis, Debye-Ang**2):
  XXX=              0.0000  YYY=              0.0000  ZZZ=              0.0000  XYY=              0.0000
  XXY=              0.0000  XXZ=              0.0000  XZZ=              0.0000  YZZ=              0.0000
  YYZ=              0.0000  XYZ=              0.0000
 Hexadecapole moment (field-independent basis, Debye-Ang**3):
 XXXX=           -330.0945 YYYY=          -1861.9932 ZZZZ=            -47.6115 XXXY=             13.8195
 XXXZ=              0.0000 YYYX=              8.0841 YYYZ=              0.0000 ZZZX=              0.0000
 ZZZY=              0.0000 XXYY=           -367.7212 XXZZ=            -72.2590 YYZZ=           -367.5321
 XXYZ=              0.0000 YYXZ=              0.0000 ZZXY=              5.8264
 N-N= 4.458993233835D+02 E-N=-1.776414676612D+03  KE= 3.758473463598D+02
 Symmetry AG   KE= 1.814054754515D+02
 Symmetry BG   KE= 7.823291413032D+00
 Symmetry AU   KE= 4.696947537092D+00
 Symmetry BU   KE= 1.819216319582D+02
 Leave Link  601 at Sat Oct 31 14:41:24 2009, MaxMem=  805306368 cpu:       5.1
 (Enter /ichec/packages/gaussian/09a02/l9999.exe)

 Test job not archived.
 1\1\GINC-R2I1N15\SP\RTD-B3LYP-FC\STO-3G\C10H10\NOBOYLE\31-Oct-2009\0\\
 #p b3lyp/sto-3g guess=read geom=allcheck td(nstates=5) iop(9/40=2)\\Ti
 tle Card Required\\0,1\C,0,-0.0758147022,0.,0.0269380605\C,0,-0.004559
 6386,0.,1.4463041813\C,0,1.2336805044,0.,2.1042190084\C,0,2.4572415581
 ,0.,1.3787842089\C,0,2.3859864946,0.,-0.0405819119\H,0,-0.9288538056,0
 .,2.0382912888\H,0,1.2652335181,0.,3.2024280979\H,0,3.3102806616,0.,-0
 .6325690194\C,0,3.752042586,0.,2.1313241969\C,0,4.9872240408,0.,1.6008
 686658\H,0,5.1663339071,0.,0.5196128923\H,0,3.6421497462,0.,3.22622979
 38\H,0,5.8793431668,0.,2.2379242817\C,0,-1.37061573,0.,-0.7256019275\H
 ,0,-1.2607228902,0.,-1.8205075245\C,0,-2.6057971848,0.,-0.1951463965\H
 ,0,-2.7849070512,0.,0.8861093771\H,0,-3.4979163108,0.,-0.8322020124\C,
 0,1.1477463516,0.,-0.698496739\H,0,1.1161933378,0.,-1.7967058285\\Vers
 ion=EM64L-G09RevA.02\State=1-AG\HF=-382.3082666\RMSD=3.084e-09\PG=C02H
  [SGH(C10H10)]\\@


 ONE BIG VICE IN A MAN IS APT TO KEEP OUT MANY SMALLER ONES.

                           -- BRET HARTE
 Job cpu time:  0 days  0 hours  2 minutes  8.3 seconds.
 File lengths (MBytes):  RWF=     19 Int=      0 D2E=      0 Chk=      2 Scr=      1
 Normal termination of Gaussian 09 at Sat Oct 31 14:41:24 2009.
