dvb_ir.out                                                              
Freq      RB3LYP                                                      STO-3G              
Number of atoms                            I               20
Info1-9                                    I   N=           9
          27          27           0           0           0         100
           6          18        -502
Charge                                     I                0
Multiplicity                               I                1
Number of electrons                        I               70
Number of alpha electrons                  I               35
Number of beta electrons                   I               35
Number of basis functions                  I               60
Number of independent functions            I               60
Number of point charges in /Mol/           I                0
Number of translation vectors              I                0
Atomic numbers                             I   N=          20
           6           6           6           6           6           1
           1           1           6           6           1           1
           1           6           1           6           1           1
           6           1
Nuclear charges                            R   N=          20
  6.00000000E+00  6.00000000E+00  6.00000000E+00  6.00000000E+00  6.00000000E+00
  1.00000000E+00  1.00000000E+00  1.00000000E+00  6.00000000E+00  6.00000000E+00
  1.00000000E+00  1.00000000E+00  1.00000000E+00  6.00000000E+00  1.00000000E+00
  6.00000000E+00  1.00000000E+00  1.00000000E+00  6.00000000E+00  1.00000000E+00
Current cartesian coordinates              R   N=          60
  5.09243398E-01 -2.66468392E+00  4.93038066E-32 -2.01208590E+00 -1.73987085E+00
  0.00000000E+00 -2.50469971E+00  8.63661535E-01  2.46519033E-32 -5.09243398E-01
  2.66468392E+00 -4.93038066E-32  2.01208590E+00  1.73987085E+00  0.00000000E+00
 -3.59887004E+00 -3.07571825E+00  0.00000000E+00 -4.46876767E+00  1.53666860E+00
  0.00000000E+00  3.59887004E+00  3.07571825E+00  0.00000000E+00 -1.14088436E+00
  5.42336282E+00  0.00000000E+00  5.09243398E-01  7.35471962E+00  0.00000000E+00
  2.56090016E+00  7.07137409E+00  0.00000000E+00 -3.17833038E+00  5.83925375E+00
  0.00000000E+00 -1.39896426E-01  9.32196232E+00  0.00000000E+00  1.14088436E+00
 -5.42336282E+00  0.00000000E+00  3.17833038E+00 -5.83925375E+00  0.00000000E+00
 -5.09243398E-01 -7.35471962E+00  0.00000000E+00 -2.56090016E+00 -7.07137409E+00
  0.00000000E+00  1.39896426E-01 -9.32196232E+00  0.00000000E+00  2.50469971E+00
 -8.63661535E-01  0.00000000E+00  4.46876767E+00 -1.53666860E+00  0.00000000E+00
Force Field                                I                0
Int Atom Types                             I   N=          20
           0           0           0           0           0           0
           0           0           0           0           0           0
           0           0           0           0           0           0
           0           0
MM charges                                 R   N=          20
  0.00000000E+00  0.00000000E+00  0.00000000E+00  0.00000000E+00  0.00000000E+00
  0.00000000E+00  0.00000000E+00  0.00000000E+00  0.00000000E+00  0.00000000E+00
  0.00000000E+00  0.00000000E+00  0.00000000E+00  0.00000000E+00  0.00000000E+00
  0.00000000E+00  0.00000000E+00  0.00000000E+00  0.00000000E+00  0.00000000E+00
Integer atomic weights                     I   N=          20
          12          12          12          12          12           1
           1           1          12          12           1           1
           1          12           1          12           1           1
          12           1
Real atomic weights                        R   N=          20
  1.20000000E+01  1.20000000E+01  1.20000000E+01  1.20000000E+01  1.20000000E+01
  1.00782504E+00  1.00782504E+00  1.00782504E+00  1.20000000E+01  1.20000000E+01
  1.00782504E+00  1.00782504E+00  1.00782504E+00  1.20000000E+01  1.00782504E+00
  1.20000000E+01  1.00782504E+00  1.00782504E+00  1.20000000E+01  1.00782504E+00
Atom fragment info                         I   N=          20
           0           0           0           0           0           0
           0           0           0           0           0           0
           0           0           0           0           0           0
           0           0
Atom residue num                           I   N=          20
           0           0           0           0           0           0
           0           0           0           0           0           0
           0           0           0           0           0           0
           0           0
Nuclear spins                              I   N=          20
           0           0           0           0           0           1
           1           1           0           0           1           1
           1           0           1           0           1           1
           0           1
Nuclear ZEff                               R   N=          20
 -3.60000000E+00 -3.60000000E+00 -3.60000000E+00 -3.60000000E+00 -3.60000000E+00
 -1.00000000E+00 -1.00000000E+00 -1.00000000E+00 -3.60000000E+00 -3.60000000E+00
 -1.00000000E+00 -1.00000000E+00 -1.00000000E+00 -3.60000000E+00 -1.00000000E+00
 -3.60000000E+00 -1.00000000E+00 -1.00000000E+00 -3.60000000E+00 -1.00000000E+00
Nuclear QMom                               R   N=          20
  0.00000000E+00  0.00000000E+00  0.00000000E+00  0.00000000E+00  0.00000000E+00
  0.00000000E+00  0.00000000E+00  0.00000000E+00  0.00000000E+00  0.00000000E+00
  0.00000000E+00  0.00000000E+00  0.00000000E+00  0.00000000E+00  0.00000000E+00
  0.00000000E+00  0.00000000E+00  0.00000000E+00  0.00000000E+00  0.00000000E+00
Nuclear GFac                               R   N=          20
  0.00000000E+00  0.00000000E+00  0.00000000E+00  0.00000000E+00  0.00000000E+00
  2.79284600E+00  2.79284600E+00  2.79284600E+00  0.00000000E+00  0.00000000E+00
  2.79284600E+00  2.79284600E+00  2.79284600E+00  0.00000000E+00  2.79284600E+00
  0.00000000E+00  2.79284600E+00  2.79284600E+00  0.00000000E+00  2.79284600E+00
MicOpt                                     I   N=          20
          -1          -1          -1          -1          -1          -1
          -1          -1          -1          -1          -1          -1
          -1          -1          -1          -1          -1          -1
          -1          -1
Number of contracted shells                I               30
Number of primitive shells                 I               90
Pure/Cartesian d shells                    I                0
Pure/Cartesian f shells                    I                0
Highest angular momentum                   I                1
Largest degree of contraction              I                3
Shell types                                I   N=          30
           0          -1           0          -1           0          -1
           0          -1           0          -1           0           0
           0           0          -1           0          -1           0
           0           0           0          -1           0           0
          -1           0           0           0          -1           0
Number of primitives per shell             I   N=          30
           3           3           3           3           3           3
           3           3           3           3           3           3
           3           3           3           3           3           3
           3           3           3           3           3           3
           3           3           3           3           3           3
Shell to atom map                          I   N=          30
           1           1           2           2           3           3
           4           4           5           5           6           7
           8           9           9          10          10          11
          12          13          14          14          15          16
          16          17          18          19          19          20
Primitive exponents                        R   N=          90
  7.16168373E+01  1.30450963E+01  3.53051216E+00  2.94124936E+00  6.83483096E-01
  2.22289916E-01  7.16168373E+01  1.30450963E+01  3.53051216E+00  2.94124936E+00
  6.83483096E-01  2.22289916E-01  7.16168373E+01  1.30450963E+01  3.53051216E+00
  2.94124936E+00  6.83483096E-01  2.22289916E-01  7.16168373E+01  1.30450963E+01
  3.53051216E+00  2.94124936E+00  6.83483096E-01  2.22289916E-01  7.16168373E+01
  1.30450963E+01  3.53051216E+00  2.94124936E+00  6.83483096E-01  2.22289916E-01
  3.42525091E+00  6.23913730E-01  1.68855404E-01  3.42525091E+00  6.23913730E-01
  1.68855404E-01  3.42525091E+00  6.23913730E-01  1.68855404E-01  7.16168373E+01
  1.30450963E+01  3.53051216E+00  2.94124936E+00  6.83483096E-01  2.22289916E-01
  7.16168373E+01  1.30450963E+01  3.53051216E+00  2.94124936E+00  6.83483096E-01
  2.22289916E-01  3.42525091E+00  6.23913730E-01  1.68855404E-01  3.42525091E+00
  6.23913730E-01  1.68855404E-01  3.42525091E+00  6.23913730E-01  1.68855404E-01
  7.16168373E+01  1.30450963E+01  3.53051216E+00  2.94124936E+00  6.83483096E-01
  2.22289916E-01  3.42525091E+00  6.23913730E-01  1.68855404E-01  7.16168373E+01
  1.30450963E+01  3.53051216E+00  2.94124936E+00  6.83483096E-01  2.22289916E-01
  3.42525091E+00  6.23913730E-01  1.68855404E-01  3.42525091E+00  6.23913730E-01
  1.68855404E-01  7.16168373E+01  1.30450963E+01  3.53051216E+00  2.94124936E+00
  6.83483096E-01  2.22289916E-01  3.42525091E+00  6.23913730E-01  1.68855404E-01
Contraction coefficients                   R   N=          90
  1.54328967E-01  5.35328142E-01  4.44634542E-01 -9.99672292E-02  3.99512826E-01
  7.00115469E-01  1.54328967E-01  5.35328142E-01  4.44634542E-01 -9.99672292E-02
  3.99512826E-01  7.00115469E-01  1.54328967E-01  5.35328142E-01  4.44634542E-01
 -9.99672292E-02  3.99512826E-01  7.00115469E-01  1.54328967E-01  5.35328142E-01
  4.44634542E-01 -9.99672292E-02  3.99512826E-01  7.00115469E-01  1.54328967E-01
  5.35328142E-01  4.44634542E-01 -9.99672292E-02  3.99512826E-01  7.00115469E-01
  1.54328967E-01  5.35328142E-01  4.44634542E-01  1.54328967E-01  5.35328142E-01
  4.44634542E-01  1.54328967E-01  5.35328142E-01  4.44634542E-01  1.54328967E-01
  5.35328142E-01  4.44634542E-01 -9.99672292E-02  3.99512826E-01  7.00115469E-01
  1.54328967E-01  5.35328142E-01  4.44634542E-01 -9.99672292E-02  3.99512826E-01
  7.00115469E-01  1.54328967E-01  5.35328142E-01  4.44634542E-01  1.54328967E-01
  5.35328142E-01  4.44634542E-01  1.54328967E-01  5.35328142E-01  4.44634542E-01
  1.54328967E-01  5.35328142E-01  4.44634542E-01 -9.99672292E-02  3.99512826E-01
  7.00115469E-01  1.54328967E-01  5.35328142E-01  4.44634542E-01  1.54328967E-01
  5.35328142E-01  4.44634542E-01 -9.99672292E-02  3.99512826E-01  7.00115469E-01
  1.54328967E-01  5.35328142E-01  4.44634542E-01  1.54328967E-01  5.35328142E-01
  4.44634542E-01  1.54328967E-01  5.35328142E-01  4.44634542E-01 -9.99672292E-02
  3.99512826E-01  7.00115469E-01  1.54328967E-01  5.35328142E-01  4.44634542E-01
P(S=P) Contraction coefficients            R   N=          90
  0.00000000E+00  0.00000000E+00  0.00000000E+00  1.55916275E-01  6.07683719E-01
  3.91957393E-01  0.00000000E+00  0.00000000E+00  0.00000000E+00  1.55916275E-01
  6.07683719E-01  3.91957393E-01  0.00000000E+00  0.00000000E+00  0.00000000E+00
  1.55916275E-01  6.07683719E-01  3.91957393E-01  0.00000000E+00  0.00000000E+00
  0.00000000E+00  1.55916275E-01  6.07683719E-01  3.91957393E-01  0.00000000E+00
  0.00000000E+00  0.00000000E+00  1.55916275E-01  6.07683719E-01  3.91957393E-01
  0.00000000E+00  0.00000000E+00  0.00000000E+00  0.00000000E+00  0.00000000E+00
  0.00000000E+00  0.00000000E+00  0.00000000E+00  0.00000000E+00  0.00000000E+00
  0.00000000E+00  0.00000000E+00  1.55916275E-01  6.07683719E-01  3.91957393E-01
  0.00000000E+00  0.00000000E+00  0.00000000E+00  1.55916275E-01  6.07683719E-01
  3.91957393E-01  0.00000000E+00  0.00000000E+00  0.00000000E+00  0.00000000E+00
  0.00000000E+00  0.00000000E+00  0.00000000E+00  0.00000000E+00  0.00000000E+00
  0.00000000E+00  0.00000000E+00  0.00000000E+00  1.55916275E-01  6.07683719E-01
  3.91957393E-01  0.00000000E+00  0.00000000E+00  0.00000000E+00  0.00000000E+00
  0.00000000E+00  0.00000000E+00  1.55916275E-01  6.07683719E-01  3.91957393E-01
  0.00000000E+00  0.00000000E+00  0.00000000E+00  0.00000000E+00  0.00000000E+00
  0.00000000E+00  0.00000000E+00  0.00000000E+00  0.00000000E+00  1.55916275E-01
  6.07683719E-01  3.91957393E-01  0.00000000E+00  0.00000000E+00  0.00000000E+00
Coordinates of each shell                  R   N=          90
  5.09243398E-01 -2.66468392E+00  0.00000000E+00  5.09243398E-01 -2.66468392E+00
  0.00000000E+00 -2.01208590E+00 -1.73987085E+00  0.00000000E+00 -2.01208590E+00
 -1.73987085E+00  0.00000000E+00 -2.50469971E+00  8.63661535E-01  0.00000000E+00
 -2.50469971E+00  8.63661535E-01  0.00000000E+00 -5.09243398E-01  2.66468392E+00
  1.96153422E-34 -5.09243398E-01  2.66468392E+00  1.96153422E-34  2.01208590E+00
  1.73987085E+00 -7.75027297E-34  2.01208590E+00  1.73987085E+00 -7.75027297E-34
 -3.59887004E+00 -3.07571825E+00  0.00000000E+00 -4.46876767E+00  1.53666860E+00
  0.00000000E+00  3.59887004E+00  3.07571825E+00 -1.38623431E-33 -1.14088436E+00
  5.42336282E+00  0.00000000E+00 -1.14088436E+00  5.42336282E+00  0.00000000E+00
  5.09243398E-01  7.35471962E+00  0.00000000E+00  5.09243398E-01  7.35471962E+00
  0.00000000E+00  2.56090016E+00  7.07137409E+00  0.00000000E+00 -3.17833038E+00
  5.83925375E+00  0.00000000E+00 -1.39896426E-01  9.32196232E+00  0.00000000E+00
  1.14088436E+00 -5.42336282E+00 -4.39452670E-34  1.14088436E+00 -5.42336282E+00
 -4.39452670E-34  3.17833038E+00 -5.83925375E+00 -1.22424833E-33 -5.09243398E-01
 -7.35471962E+00  1.96153422E-34 -5.09243398E-01 -7.35471962E+00  1.96153422E-34
 -2.56090016E+00 -7.07137409E+00  9.86422862E-34  1.39896426E-01 -9.32196232E+00
 -5.38861430E-35  2.50469971E+00 -8.63661535E-01 -9.64775234E-34  2.50469971E+00
 -8.63661535E-01 -9.64775234E-34  4.46876767E+00 -1.53666860E+00 -1.72130669E-33
Constraint Structure                       R   N=          60
  5.09243398E-01 -2.66468392E+00  0.00000000E+00 -2.01208590E+00 -1.73987085E+00
  0.00000000E+00 -2.50469971E+00  8.63661535E-01  0.00000000E+00 -5.09243398E-01
  2.66468392E+00  1.96153422E-34  2.01208590E+00  1.73987085E+00 -7.75027297E-34
 -3.59887004E+00 -3.07571825E+00  0.00000000E+00 -4.46876767E+00  1.53666860E+00
  0.00000000E+00  3.59887004E+00  3.07571825E+00 -1.38623431E-33 -1.14088436E+00
  5.42336282E+00  0.00000000E+00  5.09243398E-01  7.35471962E+00  0.00000000E+00
  2.56090016E+00  7.07137409E+00  0.00000000E+00 -3.17833038E+00  5.83925375E+00
  0.00000000E+00 -1.39896426E-01  9.32196232E+00  0.00000000E+00  1.14088436E+00
 -5.42336282E+00 -4.39452670E-34  3.17833038E+00 -5.83925375E+00 -1.22424833E-33
 -5.09243398E-01 -7.35471962E+00  1.96153422E-34 -2.56090016E+00 -7.07137409E+00
  9.86422862E-34  1.39896426E-01 -9.32196232E+00 -5.38861430E-35  2.50469971E+00
 -8.63661535E-01 -9.64775234E-34  4.46876767E+00 -1.53666860E+00 -1.72130669E-33
Num ILSW                                   I              100
ILSW                                       I   N=         100
           0           0           0           0           2           0
           0           0           0           0         402          -1
           0           0           0           0           0           0
           0           0           0           0           1           0
           1           0           0           0           0           0
           0           0      100000           0          -1           0
           0           0           0           0           0           0
           0           0           0           1           0           0
           0           0           1           0           0           0
           0           0           4          40           0           0
           0           0           5           0           0           0
           0           0           0           0           0           0
           0           0           0           0           0           0
           0           0           0           0           0           0
           0           0           0           0           0           0
           0           0           0           0           0           0
           0           0           0           0
Num RLSW                                   I               40
RLSW                                       R   N=          40
  8.00000000E-01  7.20000000E-01  1.00000000E+00  8.10000000E-01  2.00000000E-01
  0.00000000E+00  0.00000000E+00  1.00000000E+00  0.00000000E+00  0.00000000E+00
  0.00000000E+00  0.00000000E+00  1.00000000E+00  0.00000000E+00  0.00000000E+00
  0.00000000E+00  0.00000000E+00  1.00000000E+00  0.00000000E+00  0.00000000E+00
  0.00000000E+00  0.00000000E+00  1.00000000E+00  0.00000000E+00  0.00000000E+00
  0.00000000E+00  0.00000000E+00  1.00000000E+00  0.00000000E+00  0.00000000E+00
  0.00000000E+00  0.00000000E+00  0.00000000E+00  0.00000000E+00  0.00000000E+00
  0.00000000E+00  0.00000000E+00  0.00000000E+00  1.00000000E+00  1.00000000E+00
MxBond                                     I                3
NBond                                      I   N=          20
           3           3           3           3           3           1
           1           1           3           3           1           1
           1           3           1           3           1           1
           3           1
IBond                                      I   N=          60
           2          14          19           1           3           6
           2           4           7           3           5           9
           4           8          19           2           0           0
           3           0           0           5           0           0
           4          10          12           9          11          13
          10           0           0           9           0           0
          10           0           0           1          15          16
          14           0           0          14          17          18
          16           0           0          16           0           0
           1           5          20          19           0           0
RBond                                      R   N=          60
  1.50000000E+00  1.00000000E+00  1.50000000E+00  1.50000000E+00  1.50000000E+00
  1.00000000E+00  1.50000000E+00  1.50000000E+00  1.00000000E+00  1.50000000E+00
  1.50000000E+00  1.00000000E+00  1.50000000E+00  1.00000000E+00  1.50000000E+00
  1.00000000E+00  0.00000000E+00  0.00000000E+00  1.00000000E+00  0.00000000E+00
  0.00000000E+00  1.00000000E+00  0.00000000E+00  0.00000000E+00  1.00000000E+00
  2.00000000E+00  1.00000000E+00  2.00000000E+00  1.00000000E+00  1.00000000E+00
  1.00000000E+00  0.00000000E+00  0.00000000E+00  1.00000000E+00  0.00000000E+00
  0.00000000E+00  1.00000000E+00  0.00000000E+00  0.00000000E+00  1.00000000E+00
  1.00000000E+00  2.00000000E+00  1.00000000E+00  0.00000000E+00  0.00000000E+00
  2.00000000E+00  1.00000000E+00  1.00000000E+00  1.00000000E+00  0.00000000E+00
  0.00000000E+00  1.00000000E+00  0.00000000E+00  0.00000000E+00  1.50000000E+00
  1.50000000E+00  1.00000000E+00  1.00000000E+00  0.00000000E+00  0.00000000E+00
Virial Ratio                               R      2.017190263610999E+00
SCF Energy                                 R     -3.823082665785660E+02
Total Energy                               R     -3.823082665785660E+02
RMS Force                                  R      1.772489928371127E-05
RMS Density                                R      3.542885716582140E-09
External E-field                           R   N=          35
  0.00000000E+00  0.00000000E+00  0.00000000E+00  0.00000000E+00  0.00000000E+00
  0.00000000E+00  0.00000000E+00  0.00000000E+00  0.00000000E+00  0.00000000E+00
  0.00000000E+00  0.00000000E+00  0.00000000E+00  0.00000000E+00  0.00000000E+00
  0.00000000E+00  0.00000000E+00  0.00000000E+00  0.00000000E+00  0.00000000E+00
  0.00000000E+00  0.00000000E+00  0.00000000E+00  0.00000000E+00  0.00000000E+00
  0.00000000E+00  0.00000000E+00  0.00000000E+00  0.00000000E+00  0.00000000E+00
  0.00000000E+00  0.00000000E+00  0.00000000E+00  0.00000000E+00  0.00000000E+00
IOpCl                                      I                0
IROHF                                      I                0
Alpha Orbital Energies                     R   N=          60
 -1.00202093E+01 -1.00201619E+01 -1.00081158E+01 -1.00081148E+01 -1.00067889E+01
 -1.00067844E+01 -1.00060518E+01 -1.00059141E+01 -9.99233087E+00 -9.99233079E+00
 -8.09506178E-01 -7.53986767E-01 -7.17966803E-01 -6.99779844E-01 -6.67506227E-01
 -5.88690751E-01 -5.58921885E-01 -5.31666656E-01 -5.10167141E-01 -4.57444456E-01
 -4.39365080E-01 -4.10596576E-01 -3.97956260E-01 -3.96070193E-01 -3.73964006E-01
 -3.51151553E-01 -3.47294965E-01 -3.24506647E-01 -3.11253225E-01 -2.92783764E-01
 -2.87457103E-01 -2.63547272E-01 -2.12448698E-01 -1.95049232E-01 -1.53085082E-01
  3.74226642E-02  9.03644940E-02  1.10613433E-01  1.82204610E-01  2.72527328E-01
  3.32226817E-01  3.40725283E-01  3.79362637E-01  3.81452988E-01  4.10966281E-01
  4.11948441E-01  4.26762502E-01  4.39641201E-01  4.52759049E-01  4.78260088E-01
  5.26244126E-01  5.45824116E-01  5.76009466E-01  5.99439501E-01  6.24983561E-01
  6.39714359E-01  6.82797144E-01  7.17249825E-01  7.79561104E-01  7.94578772E-01
Alpha MO coefficients                      R   N=        3600
  6.99293854E-01  3.15673576E-02 -5.32942220E-05  9.12451136E-04  0.00000000E+00
 -1.91485291E-02 -7.71300958E-03 -4.20386150E-03  1.23239409E-03  0.00000000E+00
  1.85785282E-02  7.72505081E-03  3.46073692E-03  2.71860563E-03  0.00000000E+00
 -6.99293854E-01 -3.15673576E-02 -5.32942220E-05  9.12451136E-04  0.00000000E+00
  1.91485291E-02  7.71300958E-03 -4.20386150E-03  1.23239409E-03  0.00000000E+00
  3.32652393E-04 -3.32906721E-04 -3.32652393E-04  2.74424396E-02  6.72596423E-03
  1.00511633E-03 -3.94792278E-03  0.00000000E+00 -1.80405973E-04 -4.74550780E-04
 -1.13077021E-05  2.82193569E-04  0.00000000E+00  1.48426734E-04 -3.26004710E-04
  2.87440392E-05 -2.74424396E-02 -6.72596423E-03  1.00511633E-03 -3.94792278E-03
  0.00000000E+00  3.26004710E-04  1.80405973E-04  4.74550780E-04 -1.13077021E-05
  2.82193569E-04  0.00000000E+00 -1.48426734E-04 -2.87440392E-05 -1.85785282E-02
 -7.72505081E-03  3.46073692E-03  2.71860563E-03  0.00000000E+00  3.32906721E-04
  6.99291570E-01  3.13607086E-02  7.30677761E-06  6.43765094E-04  0.00000000E+00
 -1.94060475E-02 -6.87906291E-03 -4.10469860E-03  1.66266841E-03  0.00000000E+00
 -1.90566087E-02 -6.91295850E-03 -3.24305729E-03 -3.08274045E-03  0.00000000E+00
  6.99291570E-01  3.13607086E-02 -7.30677761E-06 -6.43765094E-04  0.00000000E+00
 -1.94060475E-02 -6.87906291E-03  4.10469860E-03 -1.66266841E-03  0.00000000E+00
  2.22935412E-04  2.19900792E-04  2.22935412E-04 -2.78065551E-02 -6.79386213E-03
 -1.01376963E-03  3.98534753E-03  0.00000000E+00  1.94223197E-04  4.77770668E-04
  1.08602979E-05 -2.88865550E-04  0.00000000E+00 -1.40589507E-04  3.37268450E-04
 -2.78400578E-05 -2.78065551E-02 -6.79386213E-03  1.01376963E-03 -3.98534753E-03
  0.00000000E+00  3.37268450E-04  1.94223197E-04  4.77770668E-04 -1.08602979E-05
  2.88865550E-04  0.00000000E+00 -1.40589507E-04 -2.78400578E-05 -1.90566087E-02
 -6.91295850E-03  3.24305729E-03  3.08274045E-03  0.00000000E+00  2.19900792E-04
 -2.80464396E-02  4.12519135E-03  7.75452261E-04 -4.12996384E-03  0.00000000E+00
  7.70911006E-03  4.41872088E-04  1.31352696E-04  7.85544293E-05  0.00000000E+00
 -8.72203209E-03 -5.31606544E-04 -1.28752880E-04  2.13602221E-06  0.00000000E+00
  2.80464396E-02 -4.12519135E-03  7.75452261E-04 -4.12996384E-03  0.00000000E+00
 -7.70911006E-03 -4.41872088E-04  1.31352696E-04  7.85544293E-05  0.00000000E+00
  5.99359804E-05  7.59077293E-05 -5.99359804E-05  6.99825092E-01  3.07840644E-02
  7.15600104E-04  1.09293269E-03  0.00000000E+00 -8.11055974E-03 -7.61385116E-03
  2.95709818E-03  3.51524892E-03  0.00000000E+00  1.86287105E-04 -6.42295274E-03
  2.15860480E-04 -6.99825092E-01 -3.07840644E-02  7.15600104E-04  1.09293269E-03
  0.00000000E+00  6.42295274E-03  8.11055974E-03  7.61385116E-03  2.95709818E-03
  3.51524892E-03  0.00000000E+00 -1.86287105E-04 -2.15860480E-04  8.72203209E-03
  5.31606544E-04 -1.28752880E-04  2.13602221E-06  0.00000000E+00 -7.59077293E-05
  2.82523953E-02 -4.07059357E-03 -7.66956525E-04  4.10290554E-03  0.00000000E+00
 -1.02837074E-02 -4.22803511E-04 -2.09528554E-04 -1.74863537E-05  0.00000000E+00
 -1.15874942E-02 -5.56882699E-04 -1.88606299E-04 -6.52162789E-05  0.00000000E+00
  2.82523953E-02 -4.07059357E-03  7.66956525E-04 -4.10290554E-03  0.00000000E+00
 -1.02837074E-02 -4.22803511E-04  2.09528554E-04  1.74863537E-05  0.00000000E+00
 -6.15725034E-05  8.12159849E-05 -6.15725034E-05  6.99743270E-01  3.07655180E-02
  7.12998383E-04  1.10320176E-03  0.00000000E+00 -8.10404135E-03 -7.61223328E-03
  2.95745337E-03  3.51340779E-03  0.00000000E+00  1.86659350E-04 -6.42072055E-03
  2.16089312E-04  6.99743270E-01  3.07655180E-02 -7.12998383E-04 -1.10320176E-03
  0.00000000E+00 -6.42072055E-03 -8.10404135E-03 -7.61223328E-03 -2.95745337E-03
 -3.51340779E-03  0.00000000E+00  1.86659350E-04  2.16089312E-04 -1.15874942E-02
 -5.56882699E-04  1.88606299E-04  6.52162789E-05  0.00000000E+00  8.12159849E-05
  2.75265300E-02 -7.89429120E-03  2.03364439E-03 -2.83525442E-03  0.00000000E+00
  6.12893431E-01  3.03519677E-02  1.68053684E-04  2.87637162E-03  0.00000000E+00
 -3.37107581E-01 -2.07593376E-02 -1.18707721E-03  4.10943338E-03  0.00000000E+00
 -2.75265300E-02  7.89429120E-03  2.03364439E-03 -2.83525442E-03  0.00000000E+00
 -6.12893431E-01 -3.03519677E-02  1.68053684E-04  2.87637162E-03  0.00000000E+00
 -5.63990108E-03  3.20881408E-03  5.63990108E-03 -9.94439536E-03 -5.58858310E-04
 -5.02976354E-05 -4.38813882E-05  0.00000000E+00  9.26864955E-04  2.35490263E-04
 -2.94864869E-06 -1.23698798E-04  0.00000000E+00 -1.58968644E-04  1.41814500E-04
  1.02408279E-05  9.94439536E-03  5.58858310E-04 -5.02976354E-05 -4.38813882E-05
  0.00000000E+00 -1.41814500E-04 -9.26864955E-04 -2.35490263E-04 -2.94864869E-06
 -1.23698798E-04  0.00000000E+00  1.58968644E-04 -1.02408279E-05  3.37107581E-01
  2.07593376E-02 -1.18707721E-03  4.10943338E-03  0.00000000E+00 -3.20881408E-03
  7.09042474E-03 -1.76911899E-03  5.19034446E-03  2.73776617E-04  0.00000000E+00
  5.97727544E-01  2.97278792E-02 -5.06571170E-05  2.83832970E-03  0.00000000E+00
 -3.64313226E-01 -2.16511018E-02 -1.11560498E-03  3.91898339E-03  0.00000000E+00
  7.09042474E-03 -1.76911899E-03 -5.19034446E-03 -2.73776617E-04  0.00000000E+00
  5.97727544E-01  2.97278792E-02  5.06571170E-05 -2.83832970E-03  0.00000000E+00
 -5.51896024E-03  3.38061308E-03 -5.51896024E-03  2.47552425E-03  1.02063606E-04
  1.10711797E-04  6.23806810E-05  0.00000000E+00 -4.43100551E-04 -1.02104746E-04
 -2.22492024E-05  3.83255096E-05  0.00000000E+00  1.60489622E-04 -4.71333784E-05
 -5.55717578E-06  2.47552425E-03  1.02063606E-04 -1.10711797E-04 -6.23806810E-05
  0.00000000E+00 -4.71333784E-05 -4.43100551E-04 -1.02104746E-04  2.22492024E-05
 -3.83255096E-05  0.00000000E+00  1.60489622E-04 -5.55717578E-06 -3.64313226E-01
 -2.16511018E-02  1.11560498E-03 -3.91898339E-03  0.00000000E+00  3.38061308E-03
 -7.58353059E-03  2.29240189E-03  4.71350506E-03  1.84509950E-03  0.00000000E+00
  3.38466977E-01  9.13889343E-03  9.98954979E-04 -3.43697189E-03  0.00000000E+00
  6.13646188E-01  2.39329171E-02  3.62163829E-04  1.64059204E-03  0.00000000E+00
  7.58353059E-03 -2.29240189E-03  4.71350506E-03  1.84509950E-03  0.00000000E+00
 -3.38466977E-01 -9.13889343E-03  9.98954979E-04 -3.43697189E-03  0.00000000E+00
 -2.89629408E-03 -5.44424837E-03  2.89629408E-03  3.65506017E-03  2.08131442E-04
 -4.17611733E-06  2.64101606E-05  0.00000000E+00  8.58071317E-05 -5.01012017E-05
  4.63161095E-05  2.37346849E-05  0.00000000E+00 -6.41955968E-05 -6.38871608E-05
  8.63909445E-06 -3.65506017E-03 -2.08131442E-04 -4.17611733E-06  2.64101606E-05
  0.00000000E+00  6.38871608E-05 -8.58071317E-05  5.01012017E-05  4.63161095E-05
  2.37346849E-05  0.00000000E+00  6.41955968E-05 -8.63909445E-06 -6.13646188E-01
 -2.39329171E-02  3.62163829E-04  1.64059204E-03  0.00000000E+00  5.44424837E-03
  2.83710250E-02 -7.32018398E-03 -6.42801258E-04 -3.16019124E-03  0.00000000E+00
  3.64595638E-01  1.04260686E-02  7.48366502E-04 -3.38075327E-03  0.00000000E+00
  5.97891083E-01  2.28453404E-02 -5.84951968E-05  1.85729551E-03  0.00000000E+00
  2.83710250E-02 -7.32018398E-03  6.42801258E-04  3.16019124E-03  0.00000000E+00
  3.64595638E-01  1.04260686E-02 -7.48366502E-04  3.38075327E-03  0.00000000E+00
 -3.31741901E-03 -5.46216269E-03 -3.31741901E-03  1.42133617E-02  6.20453913E-04
  1.15197404E-06  1.73104697E-04  0.00000000E+00 -1.08278176E-03 -2.82748819E-04
  4.01656113E-05  1.66987611E-04  0.00000000E+00  7.24444350E-05 -2.20855431E-04
 -1.07941231E-05  1.42133617E-02  6.20453913E-04 -1.15197404E-06 -1.73104697E-04
  0.00000000E+00 -2.20855431E-04 -1.08278176E-03 -2.82748819E-04 -4.01656113E-05
 -1.66987611E-04  0.00000000E+00  7.24444350E-05 -1.07941231E-05  5.97891083E-01
  2.28453404E-02  5.84951968E-05 -1.85729551E-03  0.00000000E+00 -5.46216269E-03
 -1.78636621E-04 -1.58821582E-04  2.08637759E-05  4.96966987E-05  0.00000000E+00
 -7.90043296E-04  1.48293351E-05  9.04236223E-06 -1.04786507E-04  0.00000000E+00
  2.83923425E-04 -2.19168600E-06 -4.29606286E-06 -8.07264734E-05  0.00000000E+00
  1.78636621E-04  1.58821582E-04  2.08637759E-05  4.96966987E-05  0.00000000E+00
  7.90043296E-04 -1.48293351E-05  9.04236223E-06 -1.04786507E-04  0.00000000E+00