dvb_td.out                                                              
SP        RTD-B3LYP-FC                                                STO-3G              
Number of atoms                            I               20
Info1-9                                    I   N=           9
          27          27           0           0           0         111
           1         218        -501
Charge                                     I                0
Multiplicity                               I                1
Number of electrons                        I               70
Number of alpha electrons                  I               35
Number of beta electrons                   I               35
Number of basis functions                  I               60
Number of independent functions            I               60
Number of point charges in /Mol/           I                0
Number of translation vectors              I                0
Atomic numbers                             I   N=          20
           6           6           6           6           6           1
           1           1           6           6           1           1
           1           6           1           6           1           1
           6           1
Nuclear charges                            R   N=          20
  6.00000000E+00  6.00000000E+00  6.00000000E+00  6.00000000E+00  6.00000000E+00
  1.00000000E+00  1.00000000E+00  1.00000000E+00  6.00000000E+00  6.00000000E+00
  1.00000000E+00  1.00000000E+00  1.00000000E+00  6.00000000E+00  1.00000000E+00
  6.00000000E+00  1.00000000E+00  1.00000000E+00  6.00000000E+00  1.00000000E+00
Current cartesian coordinates              R   N=          60
 -2.67275429E+00  4.34029459E-01 -1.63288536E-02 -1.49662568E+00 -1.97425600E+00
 -1.77730363E-01  1.13527157E+00 -2.19533413E+00 -4.31615069E-01  2.69614679E+00
 -2.07123302E-02 -5.79731803E-01  1.53747926E+00  2.38184727E+00 -3.54778804E-01
 -2.65198473E+00 -3.69430404E+00 -8.07685147E-02  1.99836686E+00 -4.08041123E+00
 -5.35984643E-01  2.71440008E+00  4.09065144E+00 -3.95899245E-01  5.56097171E+00
 -2.95401903E-01 -6.89732761E-01  7.04782714E+00 -3.49938871E-01  1.35419502E+00
  6.31204326E+00 -2.29220250E-02  3.26451917E+00  6.38317281E+00 -7.55908972E-01
 -2.54941225E+00  9.09037554E+00 -6.70397903E-01  1.20148626E+00 -5.47210021E+00
  7.66714750E-01  2.59722340E-01 -6.09676879E+00  2.74773333E+00  3.56816469E-01
 -7.21129011E+00 -1.07973727E+00  3.82101004E-01 -6.71731498E+00 -3.08879944E+00
  2.86594246E-01 -9.22762804E+00 -6.45195465E-01  5.74758584E-01 -1.09885885E+00
  2.60475843E+00 -1.06355407E-01 -1.96106597E+00  4.48773793E+00  3.94180674E-02
Force Field                                I                0
Int Atom Types                             I   N=          20
           0           0           0           0           0           0
           0           0           0           0           0           0
           0           0           0           0           0           0
           0           0
MM charges                                 R   N=          20
  0.00000000E+00  0.00000000E+00  0.00000000E+00  0.00000000E+00  0.00000000E+00
  0.00000000E+00  0.00000000E+00  0.00000000E+00  0.00000000E+00  0.00000000E+00
  0.00000000E+00  0.00000000E+00  0.00000000E+00  0.00000000E+00  0.00000000E+00
  0.00000000E+00  0.00000000E+00  0.00000000E+00  0.00000000E+00  0.00000000E+00
Integer atomic weights                     I   N=          20
          12          12          12          12          12           1
           1           1          12          12           1           1
           1          12           1          12           1           1
          12           1
Real atomic weights                        R   N=          20
  1.20000000E+01  1.20000000E+01  1.20000000E+01  1.20000000E+01  1.20000000E+01
  1.00782504E+00  1.00782504E+00  1.00782504E+00  1.20000000E+01  1.20000000E+01
  1.00782504E+00  1.00782504E+00  1.00782504E+00  1.20000000E+01  1.00782504E+00
  1.20000000E+01  1.00782504E+00  1.00782504E+00  1.20000000E+01  1.00782504E+00
Atom fragment info                         I   N=          20
           0           0           0           0           0           0
           0           0           0           0           0           0
           0           0           0           0           0           0
           0           0
Atom residue num                           I   N=          20
           0           0           0           0           0           0
           0           0           0           0           0           0
           0           0           0           0           0           0
           0           0
Nuclear spins                              I   N=          20
           0           0           0           0           0           1
           1           1           0           0           1           1
           1           0           1           0           1           1
           0           1
Nuclear ZEff                               R   N=          20
 -3.60000000E+00 -3.60000000E+00 -3.60000000E+00 -3.60000000E+00 -3.60000000E+00
 -1.00000000E+00 -1.00000000E+00 -1.00000000E+00 -3.60000000E+00 -3.60000000E+00
 -1.00000000E+00 -1.00000000E+00 -1.00000000E+00 -3.60000000E+00 -1.00000000E+00
 -3.60000000E+00 -1.00000000E+00 -1.00000000E+00 -3.60000000E+00 -1.00000000E+00
Nuclear QMom                               R   N=          20
  0.00000000E+00  0.00000000E+00  0.00000000E+00  0.00000000E+00  0.00000000E+00
  0.00000000E+00  0.00000000E+00  0.00000000E+00  0.00000000E+00  0.00000000E+00
  0.00000000E+00  0.00000000E+00  0.00000000E+00  0.00000000E+00  0.00000000E+00
  0.00000000E+00  0.00000000E+00  0.00000000E+00  0.00000000E+00  0.00000000E+00
Nuclear GFac                               R   N=          20
  0.00000000E+00  0.00000000E+00  0.00000000E+00  0.00000000E+00  0.00000000E+00
  2.79284600E+00  2.79284600E+00  2.79284600E+00  0.00000000E+00  0.00000000E+00
  2.79284600E+00  2.79284600E+00  2.79284600E+00  0.00000000E+00  2.79284600E+00
  0.00000000E+00  2.79284600E+00  2.79284600E+00  0.00000000E+00  2.79284600E+00
MicOpt                                     I   N=          20
          -1          -1          -1          -1          -1          -1
          -1          -1          -1          -1          -1          -1
          -1          -1          -1          -1          -1          -1
          -1          -1
Number of contracted shells                I               30
Number of primitive shells                 I               90
Pure/Cartesian d shells                    I                0
Pure/Cartesian f shells                    I                0
Highest angular momentum                   I                1
Largest degree of contraction              I                3
Shell types                                I   N=          30
           0          -1           0          -1           0          -1
           0          -1           0          -1           0           0
           0           0          -1           0          -1           0
           0           0           0          -1           0           0
          -1           0           0           0          -1           0
Number of primitives per shell             I   N=          30
           3           3           3           3           3           3
           3           3           3           3           3           3
           3           3           3           3           3           3
           3           3           3           3           3           3
           3           3           3           3           3           3
Shell to atom map                          I   N=          30
           1           1           2           2           3           3
           4           4           5           5           6           7
           8           9           9          10          10          11
          12          13          14          14          15          16
          16          17          18          19          19          20
Primitive exponents                        R   N=          90
  7.16168373E+01  1.30450963E+01  3.53051216E+00  2.94124936E+00  6.83483096E-01
  2.22289916E-01  7.16168373E+01  1.30450963E+01  3.53051216E+00  2.94124936E+00
  6.83483096E-01  2.22289916E-01  7.16168373E+01  1.30450963E+01  3.53051216E+00
  2.94124936E+00  6.83483096E-01  2.22289916E-01  7.16168373E+01  1.30450963E+01
  3.53051216E+00  2.94124936E+00  6.83483096E-01  2.22289916E-01  7.16168373E+01
  1.30450963E+01  3.53051216E+00  2.94124936E+00  6.83483096E-01  2.22289916E-01
  3.42525091E+00  6.23913730E-01  1.68855404E-01  3.42525091E+00  6.23913730E-01
  1.68855404E-01  3.42525091E+00  6.23913730E-01  1.68855404E-01  7.16168373E+01
  1.30450963E+01  3.53051216E+00  2.94124936E+00  6.83483096E-01  2.22289916E-01
  7.16168373E+01  1.30450963E+01  3.53051216E+00  2.94124936E+00  6.83483096E-01
  2.22289916E-01  3.42525091E+00  6.23913730E-01  1.68855404E-01  3.42525091E+00
  6.23913730E-01  1.68855404E-01  3.42525091E+00  6.23913730E-01  1.68855404E-01
  7.16168373E+01  1.30450963E+01  3.53051216E+00  2.94124936E+00  6.83483096E-01
  2.22289916E-01  3.42525091E+00  6.23913730E-01  1.68855404E-01  7.16168373E+01
  1.30450963E+01  3.53051216E+00  2.94124936E+00  6.83483096E-01  2.22289916E-01
  3.42525091E+00  6.23913730E-01  1.68855404E-01  3.42525091E+00  6.23913730E-01
  1.68855404E-01  7.16168373E+01  1.30450963E+01  3.53051216E+00  2.94124936E+00
  6.83483096E-01  2.22289916E-01  3.42525091E+00  6.23913730E-01  1.68855404E-01
Contraction coefficients                   R   N=          90
  1.54328967E-01  5.35328142E-01  4.44634542E-01 -9.99672292E-02  3.99512826E-01
  7.00115469E-01  1.54328967E-01  5.35328142E-01  4.44634542E-01 -9.99672292E-02
  3.99512826E-01  7.00115469E-01  1.54328967E-01  5.35328142E-01  4.44634542E-01
 -9.99672292E-02  3.99512826E-01  7.00115469E-01  1.54328967E-01  5.35328142E-01
  4.44634542E-01 -9.99672292E-02  3.99512826E-01  7.00115469E-01  1.54328967E-01
  5.35328142E-01  4.44634542E-01 -9.99672292E-02  3.99512826E-01  7.00115469E-01
  1.54328967E-01  5.35328142E-01  4.44634542E-01  1.54328967E-01  5.35328142E-01
  4.44634542E-01  1.54328967E-01  5.35328142E-01  4.44634542E-01  1.54328967E-01
  5.35328142E-01  4.44634542E-01 -9.99672292E-02  3.99512826E-01  7.00115469E-01
  1.54328967E-01  5.35328142E-01  4.44634542E-01 -9.99672292E-02  3.99512826E-01
  7.00115469E-01  1.54328967E-01  5.35328142E-01  4.44634542E-01  1.54328967E-01
  5.35328142E-01  4.44634542E-01  1.54328967E-01  5.35328142E-01  4.44634542E-01
  1.54328967E-01  5.35328142E-01  4.44634542E-01 -9.99672292E-02  3.99512826E-01
  7.00115469E-01  1.54328967E-01  5.35328142E-01  4.44634542E-01  1.54328967E-01
  5.35328142E-01  4.44634542E-01 -9.99672292E-02  3.99512826E-01  7.00115469E-01
  1.54328967E-01  5.35328142E-01  4.44634542E-01  1.54328967E-01  5.35328142E-01
  4.44634542E-01  1.54328967E-01  5.35328142E-01  4.44634542E-01 -9.99672292E-02
  3.99512826E-01  7.00115469E-01  1.54328967E-01  5.35328142E-01  4.44634542E-01
P(S=P) Contraction coefficients            R   N=          90
  0.00000000E+00  0.00000000E+00  0.00000000E+00  1.55916275E-01  6.07683719E-01
  3.91957393E-01  0.00000000E+00  0.00000000E+00  0.00000000E+00  1.55916275E-01
  6.07683719E-01  3.91957393E-01  0.00000000E+00  0.00000000E+00  0.00000000E+00
  1.55916275E-01  6.07683719E-01  3.91957393E-01  0.00000000E+00  0.00000000E+00
  0.00000000E+00  1.55916275E-01  6.07683719E-01  3.91957393E-01  0.00000000E+00
  0.00000000E+00  0.00000000E+00  1.55916275E-01  6.07683719E-01  3.91957393E-01
  0.00000000E+00  0.00000000E+00  0.00000000E+00  0.00000000E+00  0.00000000E+00
  0.00000000E+00  0.00000000E+00  0.00000000E+00  0.00000000E+00  0.00000000E+00
  0.00000000E+00  0.00000000E+00  1.55916275E-01  6.07683719E-01  3.91957393E-01
  0.00000000E+00  0.00000000E+00  0.00000000E+00  1.55916275E-01  6.07683719E-01
  3.91957393E-01  0.00000000E+00  0.00000000E+00  0.00000000E+00  0.00000000E+00
  0.00000000E+00  0.00000000E+00  0.00000000E+00  0.00000000E+00  0.00000000E+00
  0.00000000E+00  0.00000000E+00  0.00000000E+00  1.55916275E-01  6.07683719E-01
  3.91957393E-01  0.00000000E+00  0.00000000E+00  0.00000000E+00  0.00000000E+00
  0.00000000E+00  0.00000000E+00  1.55916275E-01  6.07683719E-01  3.91957393E-01
  0.00000000E+00  0.00000000E+00  0.00000000E+00  0.00000000E+00  0.00000000E+00
  0.00000000E+00  0.00000000E+00  0.00000000E+00  0.00000000E+00  1.55916275E-01
  6.07683719E-01  3.91957393E-01  0.00000000E+00  0.00000000E+00  0.00000000E+00
Coordinates of each shell                  R   N=          90
 -2.67275429E+00  4.34029459E-01 -1.63288536E-02 -2.67275429E+00  4.34029459E-01
 -1.63288536E-02 -1.49662568E+00 -1.97425600E+00 -1.77730363E-01 -1.49662568E+00
 -1.97425600E+00 -1.77730363E-01  1.13527157E+00 -2.19533413E+00 -4.31615069E-01
  1.13527157E+00 -2.19533413E+00 -4.31615069E-01  2.69614679E+00 -2.07123302E-02
 -5.79731803E-01  2.69614679E+00 -2.07123302E-02 -5.79731803E-01  1.53747926E+00
  2.38184727E+00 -3.54778804E-01  1.53747926E+00  2.38184727E+00 -3.54778804E-01
 -2.65198473E+00 -3.69430404E+00 -8.07685147E-02  1.99836686E+00 -4.08041123E+00
 -5.35984643E-01  2.71440008E+00  4.09065144E+00 -3.95899245E-01  5.56097171E+00
 -2.95401903E-01 -6.89732761E-01  5.56097171E+00 -2.95401903E-01 -6.89732761E-01
  7.04782714E+00 -3.49938871E-01  1.35419502E+00  7.04782714E+00 -3.49938871E-01
  1.35419502E+00  6.31204326E+00 -2.29220250E-02  3.26451917E+00  6.38317281E+00
 -7.55908972E-01 -2.54941225E+00  9.09037554E+00 -6.70397903E-01  1.20148626E+00
 -5.47210021E+00  7.66714750E-01  2.59722340E-01 -5.47210021E+00  7.66714750E-01
  2.59722340E-01 -6.09676879E+00  2.74773333E+00  3.56816469E-01 -7.21129011E+00
 -1.07973727E+00  3.82101004E-01 -7.21129011E+00 -1.07973727E+00  3.82101004E-01
 -6.71731498E+00 -3.08879944E+00  2.86594246E-01 -9.22762804E+00 -6.45195465E-01
  5.74758584E-01 -1.09885885E+00  2.60475843E+00 -1.06355407E-01 -1.09885885E+00
  2.60475843E+00 -1.06355407E-01 -1.96106597E+00  4.48773793E+00  3.94180674E-02
Constraint Structure                       R   N=          60
 -2.67275429E+00  4.34029459E-01 -1.63288536E-02 -1.49662568E+00 -1.97425600E+00
 -1.77730363E-01  1.13527157E+00 -2.19533413E+00 -4.31615069E-01  2.69614679E+00
 -2.07123302E-02 -5.79731803E-01  1.53747926E+00  2.38184727E+00 -3.54778804E-01
 -2.65198473E+00 -3.69430404E+00 -8.07685147E-02  1.99836686E+00 -4.08041123E+00
 -5.35984643E-01  2.71440008E+00  4.09065144E+00 -3.95899245E-01  5.56097171E+00
 -2.95401903E-01 -6.89732761E-01  7.04782714E+00 -3.49938871E-01  1.35419502E+00
  6.31204326E+00 -2.29220250E-02  3.26451917E+00  6.38317281E+00 -7.55908972E-01
 -2.54941225E+00  9.09037554E+00 -6.70397903E-01  1.20148626E+00 -5.47210021E+00
  7.66714750E-01  2.59722340E-01 -6.09676879E+00  2.74773333E+00  3.56816469E-01
 -7.21129011E+00 -1.07973727E+00  3.82101004E-01 -6.71731498E+00 -3.08879944E+00
  2.86594246E-01 -9.22762804E+00 -6.45195465E-01  5.74758584E-01 -1.09885885E+00
  2.60475843E+00 -1.06355407E-01 -1.96106597E+00  4.48773793E+00  3.94180674E-02
Num ILSW                                   I              100
ILSW                                       I   N=         100
           0           0           0           0           2           0
           0           0           0           0         402          -1
           0           0           0           0           0           0
           0           0           0           0           0           0
           1           0           0           0           0           0
           0           0      100000           0          -1           0
           0           0           0           0           0           0
           0           0           0           1           0           0
           0           0           1           0           0           0
           0           0           4          40           0           0
           0           0           5           0           0           0
           0           0           0           0           0           0
           0           0           0           0           0           0
           0           0           0           0           0           0
           0           0           0           0           0           0
           0           0           0           0           0           0
           0           0           0           0
Num RLSW                                   I               40
RLSW                                       R   N=          40
  8.00000000E-01  7.20000000E-01  1.00000000E+00  8.10000000E-01  2.00000000E-01
  0.00000000E+00  0.00000000E+00  1.00000000E+00  0.00000000E+00  0.00000000E+00
  0.00000000E+00  0.00000000E+00  1.00000000E+00  0.00000000E+00  0.00000000E+00
  0.00000000E+00  0.00000000E+00  1.00000000E+00  0.00000000E+00  0.00000000E+00
  0.00000000E+00  0.00000000E+00  1.00000000E+00  0.00000000E+00  0.00000000E+00
  0.00000000E+00  0.00000000E+00  1.00000000E+00  0.00000000E+00  0.00000000E+00
  0.00000000E+00  0.00000000E+00  0.00000000E+00  0.00000000E+00  0.00000000E+00
  0.00000000E+00  0.00000000E+00  0.00000000E+00  1.00000000E+00  1.00000000E+00
MxBond                                     I                3
NBond                                      I   N=          20
           3           3           3           3           3           1
           1           1           3           3           1           1
           1           3           1           3           1           1
           3           1
IBond                                      I   N=          60
           2          14          19           1           3           6
           2           4           7           3           5           9
           4           8          19           2           0           0
           3           0           0           5           0           0
           4          10          12           9          11          13
          10           0           0           9           0           0
          10           0           0           1          15          16
          14           0           0          14          17          18
          16           0           0          16           0           0
           1           5          20          19           0           0
RBond                                      R   N=          60
  1.50000000E+00  1.00000000E+00  1.50000000E+00  1.50000000E+00  1.50000000E+00
  1.00000000E+00  1.50000000E+00  1.50000000E+00  1.00000000E+00  1.50000000E+00
  1.50000000E+00  1.00000000E+00  1.50000000E+00  1.00000000E+00  1.50000000E+00
  1.00000000E+00  0.00000000E+00  0.00000000E+00  1.00000000E+00  0.00000000E+00
  0.00000000E+00  1.00000000E+00  0.00000000E+00  0.00000000E+00  1.00000000E+00
  2.00000000E+00  1.00000000E+00  2.00000000E+00  1.00000000E+00  1.00000000E+00
  1.00000000E+00  0.00000000E+00  0.00000000E+00  1.00000000E+00  0.00000000E+00
  0.00000000E+00  1.00000000E+00  0.00000000E+00  0.00000000E+00  1.00000000E+00
  1.00000000E+00  2.00000000E+00  1.00000000E+00  0.00000000E+00  0.00000000E+00
  2.00000000E+00  1.00000000E+00  1.00000000E+00  1.00000000E+00  0.00000000E+00
  0.00000000E+00  1.00000000E+00  0.00000000E+00  0.00000000E+00  1.50000000E+00
  1.50000000E+00  1.00000000E+00  1.00000000E+00  0.00000000E+00  0.00000000E+00
Virial Ratio                               R      2.017152046415569E+00
SCF Energy                                 R     -3.822985433852712E+02
CIS Energy                                 R     -3.820916935052447E+02
Total Energy                               R     -3.820916935052447E+02
Post-SCF wavefunction norm                 R      1.000000000000000E+00
RMS Density                                R      4.413385982780896E-09
External E-field                           R   N=          35
  0.00000000E+00  0.00000000E+00  0.00000000E+00  0.00000000E+00  0.00000000E+00
  0.00000000E+00  0.00000000E+00  0.00000000E+00  0.00000000E+00  0.00000000E+00
  0.00000000E+00  0.00000000E+00  0.00000000E+00  0.00000000E+00  0.00000000E+00
  0.00000000E+00  0.00000000E+00  0.00000000E+00  0.00000000E+00  0.00000000E+00
  0.00000000E+00  0.00000000E+00  0.00000000E+00  0.00000000E+00  0.00000000E+00
  0.00000000E+00  0.00000000E+00  0.00000000E+00  0.00000000E+00  0.00000000E+00
  0.00000000E+00  0.00000000E+00  0.00000000E+00  0.00000000E+00  0.00000000E+00
IOpCl                                      I                0
IROHF                                      I                0
Alpha Orbital Energies                     R   N=          60
 -1.00189455E+01 -1.00187227E+01 -1.00073717E+01 -1.00070909E+01 -1.00061219E+01
 -1.00055187E+01 -1.00054139E+01 -1.00047579E+01 -9.99291138E+00 -9.99115975E+00
 -8.08427783E-01 -7.52386670E-01 -7.17881060E-01 -6.97707794E-01 -6.68011206E-01
 -5.81744181E-01 -5.60235222E-01 -5.28029912E-01 -5.11813015E-01 -4.57969380E-01
 -4.32900454E-01 -4.11834117E-01 -4.05476822E-01 -3.88894644E-01 -3.73506667E-01
 -3.66551738E-01 -3.47505811E-01 -3.16820915E-01 -3.11581875E-01 -2.93212956E-01
 -2.84086763E-01 -2.39430144E-01 -2.10171868E-01 -1.93213753E-01 -1.63111157E-01
  5.35363631E-02  9.01710484E-02  1.10983639E-01  1.51236124E-01  2.59969539E-01
  3.26305589E-01  3.50816674E-01  3.73361137E-01  3.98761963E-01  4.12902043E-01
  4.16988947E-01  4.33651194E-01  4.34311917E-01  4.44023503E-01  4.75536162E-01
  5.33342291E-01  5.60663880E-01  5.82152947E-01  5.91216944E-01  6.26192140E-01
  6.45221573E-01  6.92278630E-01  6.94610879E-01  7.67570226E-01  7.92523598E-01
Alpha MO coefficients                      R   N=        3600
 -1.08445288E-01 -5.02780340E-03 -3.19386092E-04  9.25175362E-06  3.02218372E-05
  2.85176807E-03  1.73636789E-03  1.25209873E-05  6.97115534E-04  1.88395569E-05
 -2.77463643E-02 -1.04494465E-02 -3.47356368E-03 -5.15498153E-03  2.89309664E-04
  9.82905914E-01  4.40652866E-02 -1.34903874E-03  6.43124796E-05  6.98282899E-04
 -2.62695099E-02 -1.03928498E-02 -2.53773694E-03  5.65804299E-03  4.71407246E-04
 -1.27141322E-04  4.15049140E-04  3.97386192E-04 -4.07674315E-02 -8.99607726E-03
  5.64127329E-03 -5.30660072E-04 -3.72774391E-04 -5.07201817E-04  6.08916082E-04
 -2.08308654E-04  3.40788445E-05 -2.45643259E-05 -3.74461566E-04  2.71049076E-04
 -8.60982271E-05  4.18449826E-03  1.00384437E-03  5.96548116E-04 -8.60290767E-05
 -5.98211919E-05 -4.48798124E-05 -2.04331149E-05 -7.31254353E-05 -4.00277199E-05
 -2.77156594E-06  3.90689604E-06  2.82414232E-05  5.03200187E-06  2.59977854E-03
  1.71536664E-03 -1.20747626E-04 -6.84940267E-04 -5.80603339E-07 -1.24892497E-04
  9.82872551E-01  4.42691101E-02  1.09776522E-03  9.82054854E-05 -6.33903704E-05
 -2.83293429E-02 -1.02506088E-02  2.64788679E-03 -5.58644207E-03 -3.71637182E-04
 -3.32997380E-03 -5.57950047E-04 -6.63417751E-04 -4.34992538E-04  6.11428625E-05
  1.08443338E-01  4.70935048E-03  4.62401924E-05 -1.17919400E-05  5.73155233E-05
 -3.09682693E-03 -5.52715840E-04 -5.77521649E-04  5.29552148E-04  7.62144392E-05
  3.92479885E-04 -3.40324338E-05 -3.40379933E-05 -4.75362507E-03 -1.03536621E-03
  6.49622915E-04 -6.10704034E-05 -4.07979689E-05 -5.12955796E-05  6.98702872E-05
 -2.61384551E-05  4.13420364E-06 -2.12705944E-06 -4.18791694E-05  3.38926315E-05
 -9.17172879E-06 -4.04432984E-02 -9.55897060E-03 -5.66286440E-03  8.12289283E-04
  5.60261112E-04  4.82116304E-04  2.78730419E-04  6.85627193E-04  4.07674713E-04
  3.35274582E-05 -3.81112711E-05 -2.02849687E-04 -3.95551621E-05 -2.67229322E-02
 -1.02809540E-02  3.58836975E-03  5.11541773E-03 -2.04944266E-04  3.82701185E-04
  8.67514292E-05  4.08405334E-05 -2.71431971E-05  5.28453994E-06  4.27566538E-06
 -1.42962821E-03  5.38287166E-05  6.36320389E-05 -4.69684515E-05  2.94043691E-06
 -2.23750323E-02 -1.10699875E-03 -1.67535736E-04 -3.63641209E-04  5.55186231E-06
  4.14283250E-02 -5.09042930E-03 -5.87459347E-03  5.60349838E-04  7.70130513E-05
 -1.46816708E-02 -7.84908994E-04 -8.06450793E-05  4.01061809E-04  4.61092588E-05
  2.37857777E-06 -1.87741424E-04 -2.56881527E-04  9.89421939E-01  4.33428649E-02
  1.51025788E-03 -7.80869780E-04  1.74167572E-03 -1.11269432E-02 -1.09554887E-02
  3.89301123E-03 -8.31771216E-05  5.30610486E-03  2.54675400E-04 -9.02121264E-03
  3.14130569E-04 -1.61241390E-03 -8.01227825E-05 -4.46866767E-06  2.70825445E-06
  6.90577972E-08  1.54204545E-05  2.19289616E-05  1.81052356E-05  8.13783534E-06
  7.12020278E-06 -5.67818180E-07 -6.81863876E-07 -3.67949564E-07 -1.88868667E-03
 -2.75054692E-05  2.97727507E-05  3.74049401E-05  3.33241007E-06  7.67527164E-06
  4.13513216E-02 -5.69556307E-03  5.87525602E-03 -4.73603381E-04 -5.70990458E-04
 -1.45619821E-02 -7.03365785E-04 -3.62142610E-05 -2.57859251E-04 -1.99541631E-06
 -2.53322832E-03 -2.23912274E-05 -5.45446877E-05 -4.62443388E-05  4.47485370E-06
  2.18083393E-04  3.22663376E-05  1.00381368E-05 -6.21808641E-06 -8.57224853E-07
 -1.62237529E-03  1.45419998E-05 -4.40430421E-05  5.06884345E-05  5.88912778E-06
 -6.92024082E-05  7.43718566E-06 -3.37956588E-06  1.47301478E-03  5.52706569E-05
  9.93168460E-06 -1.81730465E-06  2.80082688E-06 -1.79102747E-05 -1.66078537E-05
  5.51251101E-06 -4.92339084E-08  8.36385109E-06  3.53975763E-07 -1.31153217E-05
  5.39741027E-07  9.89570715E-01  4.34963571E-02 -1.46001366E-03 -1.16774069E-03
  8.89504812E-05 -9.08164547E-03 -1.12673655E-02 -1.07644439E-02 -4.48199706E-03
 -4.69158987E-03  3.19764847E-04  2.61047839E-04  3.04135183E-04 -1.35734183E-02
 -7.53635965E-04  2.50396643E-05  2.37712879E-04  2.34005992E-06  1.03857241E-04
 -1.94754209E-02  5.32925993E-03  1.83119501E-03 -3.60933164E-03 -2.46599410E-04
 -6.40891701E-01 -3.53763299E-02 -5.38467291E-03 -2.12133412E-04  4.74757918E-04
  7.53710410E-01  3.93067762E-02 -4.62970267E-03  1.17979331E-03  4.06881162E-04
  2.26781593E-02 -6.21308443E-03  2.75877926E-03  3.85765025E-03 -2.63722410E-04
 -6.60561379E-03 -1.61688604E-04 -1.09766788E-04 -5.90598927E-05  4.88881421E-06
  5.97493136E-03 -6.96470946E-03  2.10653135E-05  1.51732241E-02  6.82852068E-04
  1.90118421E-05 -8.53735498E-05  4.54108723E-07  1.00850130E-04 -1.22078555E-04
  3.95834183E-05 -5.49681325E-07  8.28410071E-05 -2.51511742E-05 -1.53054143E-04
  2.68512878E-06 -6.79112181E-03 -3.78854672E-04  3.50796995E-05  1.08655715E-04
 -1.28121743E-06  1.00163897E-04  6.53356270E-04  1.82228351E-04  8.01813561E-05
  1.66591073E-06 -8.48936999E-06 -1.80845794E-04  5.87330963E-06 -2.15389646E-04
 -8.32866445E-05 -6.18208386E-05  1.17055759E-04  6.89558172E-06  1.18867834E-05
 -1.88250157E-02  5.43936201E-03  2.38981351E-03  2.45275863E-03 -1.55906098E-04
 -7.82351602E-02 -3.02539764E-03  1.85983395E-04 -2.08862493E-04 -2.97465274E-05
 -6.09468850E-02 -1.81603567E-03 -5.35247812E-04  6.52842475E-05  5.12294651E-05
  2.09671514E-02 -6.22683809E-03  2.02551612E-03 -4.81812579E-03 -4.08977133E-04
  8.02888284E-01  4.08017022E-02 -4.33141304E-03 -5.20741978E-04  3.18308570E-04
  7.05960071E-04  4.95171592E-04 -7.38245698E-03  8.54570679E-03  4.04977822E-04
  1.33850781E-05  7.45125484E-05 -5.12394000E-06  2.68625682E-04 -3.55021021E-05
  1.40611153E-05  2.52136251E-06  5.79568998E-05 -5.00863871E-05 -8.96768332E-05
 -1.66530716E-06 -7.11265935E-03 -4.06105913E-04  1.48985418E-05 -3.57881498E-05
 -2.37838082E-06  9.76964665E-05  4.92264378E-04  1.34470568E-04  8.00125292E-05
  3.09761409E-05 -7.09973101E-06 -1.44021378E-05  4.82258017E-06 -5.69846257E-01
 -3.26627908E-02 -5.46199071E-03  1.07485464E-03  5.11586840E-04  5.32580262E-03
  1.89392774E-02 -4.49669015E-03 -1.40869187E-03  4.84185712E-03  2.34727775E-04
  7.46274132E-01  2.69127951E-02 -3.26125323E-03  8.38715308E-04  3.73165210E-04
  6.34645728E-01  2.09752739E-02  4.16206350E-03  1.62898998E-04 -4.42952787E-04
  2.00696886E-02 -4.99803113E-03  2.24091454E-03  3.05906320E-03 -2.10370829E-04
  1.59048701E-02  2.01301089E-03 -8.74480869E-04  2.70546704E-04  8.27505639E-05
 -6.69155800E-03 -5.64280740E-03 -2.96530911E-04  1.46484456E-02  5.52044467E-04
  9.21654475E-05 -3.78180480E-06  5.98583651E-07  7.30037906E-05 -1.16859266E-04
  3.50197195E-05 -6.48651196E-06  7.77669180E-05 -2.16523059E-05 -1.40836576E-04
  2.69923652E-06  9.84624021E-03  4.09909192E-04 -1.07333759E-04 -5.46229870E-05
  9.63670705E-06 -1.36948145E-04 -9.87417664E-04 -2.17259707E-04 -1.21749692E-04
 -3.32878223E-06  1.23061707E-05  1.64991455E-04 -1.60610633E-05 -1.47214217E-01
 -6.70515593E-03 -2.30443662E-04  3.80538906E-04  2.25524143E-05  1.21653572E-03
  2.58506161E-02 -6.77203670E-03 -3.04713564E-03 -3.50870634E-03  1.85411320E-04
  8.06659245E-02  2.82649756E-03 -4.33777563E-04 -1.07989228E-04  4.18161433E-05
  7.38922310E-02  2.42020579E-03  4.88220489E-04 -2.22523005E-04 -6.09935172E-05
  1.92915455E-02 -4.95803201E-03  1.73046910E-03 -2.81124222E-03 -3.04688370E-04
  5.79199177E-01  1.80784117E-02  4.47762290E-03 -8.00551095E-04 -4.84720570E-04
 -8.51426333E-04 -7.84197047E-04 -5.15700206E-03  1.12039055E-02  3.86374709E-04
  9.41843028E-05 -1.75372470E-05 -6.41326645E-06  1.66135101E-04 -6.69601579E-05
  2.16986535E-05  4.52951816E-06  6.45689426E-05 -3.92364033E-05 -1.09334275E-04
 -2.39281148E-07  1.22462139E-02  5.56830121E-04 -1.52039261E-04 -2.17765683E-05
  1.46008832E-05 -2.02211299E-04 -7.52843188E-04 -2.38047905E-04 -1.29746110E-04
 -7.02390515E-05  1.09533668E-05  1.87743706E-05 -2.93339684E-06  7.96251420E-01
  2.96510310E-02 -3.02770531E-03 -3.56471762E-04  3.09657699E-04 -7.16235868E-03
 -1.75395502E-06  1.25954777E-07  2.96893172E-07 -1.72384677E-07  3.54917435E-07
  1.66053027E-06  4.37226407E-06  3.07439968E-06 -3.43514546E-07 -3.88453217E-07
 -4.00383113E-04  1.57851106E-05  2.26260005E-05 -8.06502210E-06  6.29721145E-06
  1.00361260E-03  1.46742365E-04  7.46484010E-05  3.25024779E-06 -3.06597774E-06