dvb_sp.out                                                              
SP        RB3LYP                                                      STO-3G              
Number of atoms                            I               20
Info1-9                                    I   N=           9
          27          27           0           0           0         111
           1          18        -502
Charge                                     I                0
Multiplicity                               I                1
Number of electrons                        I               70
Number of alpha electrons                  I               35
Number of beta electrons                   I               35
Number of basis functions                  I               60
Number of independent functions            I               60
Number of point charges in /Mol/           I                0
Number of translation vectors              I                0
Atomic numbers                             I   N=          20
           6           6           6           6           6           1
           1           1           6           6           1           1
           1           6           1           6           1           1
           6           1
Nuclear charges                            R   N=          20
  6.00000000E+00  6.00000000E+00  6.00000000E+00  6.00000000E+00  6.00000000E+00
  1.00000000E+00  1.00000000E+00  1.00000000E+00  6.00000000E+00  6.00000000E+00
  1.00000000E+00  1.00000000E+00  1.00000000E+00  6.00000000E+00  1.00000000E+00
  6.00000000E+00  1.00000000E+00  1.00000000E+00  6.00000000E+00  1.00000000E+00
Current cartesian coordinates              R   N=          60
  5.09243398E-01 -2.66468392E+00  0.00000000E+00 -2.01208590E+00 -1.73987085E+00
  0.00000000E+00 -2.50469971E+00  8.63661535E-01  0.00000000E+00 -5.09243398E-01
  2.66468392E+00  0.00000000E+00  2.01208590E+00  1.73987085E+00  0.00000000E+00
 -3.59885114E+00 -3.07571825E+00  0.00000000E+00 -4.46876767E+00  1.53666860E+00
  0.00000000E+00  3.59885114E+00  3.07571825E+00  0.00000000E+00 -1.14088436E+00
  5.42336282E+00  0.00000000E+00  5.09243398E-01  7.35471962E+00  0.00000000E+00
  2.56090016E+00  7.07137409E+00  0.00000000E+00 -3.17833038E+00  5.83927265E+00
  0.00000000E+00 -1.39896426E-01  9.32196232E+00  0.00000000E+00  1.14088436E+00
 -5.42336282E+00  0.00000000E+00  3.17833038E+00 -5.83927265E+00  0.00000000E+00
 -5.09243398E-01 -7.35471962E+00  0.00000000E+00 -2.56090016E+00 -7.07137409E+00
  0.00000000E+00  1.39896426E-01 -9.32196232E+00  0.00000000E+00  2.50469971E+00
 -8.63661535E-01  0.00000000E+00  4.46876767E+00 -1.53666860E+00  0.00000000E+00
Force Field                                I                0
Int Atom Types                             I   N=          20
           0           0           0           0           0           0
           0           0           0           0           0           0
           0           0           0           0           0           0
           0           0
MM charges                                 R   N=          20
  0.00000000E+00  0.00000000E+00  0.00000000E+00  0.00000000E+00  0.00000000E+00
  0.00000000E+00  0.00000000E+00  0.00000000E+00  0.00000000E+00  0.00000000E+00
  0.00000000E+00  0.00000000E+00  0.00000000E+00  0.00000000E+00  0.00000000E+00
  0.00000000E+00  0.00000000E+00  0.00000000E+00  0.00000000E+00  0.00000000E+00
Integer atomic weights                     I   N=          20
          12          12          12          12          12           1
           1           1          12          12           1           1
           1          12           1          12           1           1
          12           1
Real atomic weights                        R   N=          20
  1.20000000E+01  1.20000000E+01  1.20000000E+01  1.20000000E+01  1.20000000E+01
  1.00782504E+00  1.00782504E+00  1.00782504E+00  1.20000000E+01  1.20000000E+01
  1.00782504E+00  1.00782504E+00  1.00782504E+00  1.20000000E+01  1.00782504E+00
  1.20000000E+01  1.00782504E+00  1.00782504E+00  1.20000000E+01  1.00782504E+00
Atom fragment info                         I   N=          20
           0           0           0           0           0           0
           0           0           0           0           0           0
           0           0           0           0           0           0
           0           0
Atom residue num                           I   N=          20
           0           0           0           0           0           0
           0           0           0           0           0           0
           0           0           0           0           0           0
           0           0
Nuclear spins                              I   N=          20
           0           0           0           0           0           1
           1           1           0           0           1           1
           1           0           1           0           1           1
           0           1
Nuclear ZEff                               R   N=          20
 -3.60000000E+00 -3.60000000E+00 -3.60000000E+00 -3.60000000E+00 -3.60000000E+00
 -1.00000000E+00 -1.00000000E+00 -1.00000000E+00 -3.60000000E+00 -3.60000000E+00
 -1.00000000E+00 -1.00000000E+00 -1.00000000E+00 -3.60000000E+00 -1.00000000E+00
 -3.60000000E+00 -1.00000000E+00 -1.00000000E+00 -3.60000000E+00 -1.00000000E+00
Nuclear QMom                               R   N=          20
  0.00000000E+00  0.00000000E+00  0.00000000E+00  0.00000000E+00  0.00000000E+00
  0.00000000E+00  0.00000000E+00  0.00000000E+00  0.00000000E+00  0.00000000E+00
  0.00000000E+00  0.00000000E+00  0.00000000E+00  0.00000000E+00  0.00000000E+00
  0.00000000E+00  0.00000000E+00  0.00000000E+00  0.00000000E+00  0.00000000E+00
Nuclear GFac                               R   N=          20
  0.00000000E+00  0.00000000E+00  0.00000000E+00  0.00000000E+00  0.00000000E+00
  2.79284600E+00  2.79284600E+00  2.79284600E+00  0.00000000E+00  0.00000000E+00
  2.79284600E+00  2.79284600E+00  2.79284600E+00  0.00000000E+00  2.79284600E+00
  0.00000000E+00  2.79284600E+00  2.79284600E+00  0.00000000E+00  2.79284600E+00
MicOpt                                     I   N=          20
          -1          -1          -1          -1          -1          -1
          -1          -1          -1          -1          -1          -1
          -1          -1          -1          -1          -1          -1
          -1          -1
Number of contracted shells                I               30
Number of primitive shells                 I               90
Pure/Cartesian d shells                    I                0
Pure/Cartesian f shells                    I                0
Highest angular momentum                   I                1
Largest degree of contraction              I                3
Shell types                                I   N=          30
           0          -1           0          -1           0          -1
           0          -1           0          -1           0           0
           0           0          -1           0          -1           0
           0           0           0          -1           0           0
          -1           0           0           0          -1           0
Number of primitives per shell             I   N=          30
           3           3           3           3           3           3
           3           3           3           3           3           3
           3           3           3           3           3           3
           3           3           3           3           3           3
           3           3           3           3           3           3
Shell to atom map                          I   N=          30
           1           1           2           2           3           3
           4           4           5           5           6           7
           8           9           9          10          10          11
          12          13          14          14          15          16
          16          17          18          19          19          20
Primitive exponents                        R   N=          90
  7.16168373E+01  1.30450963E+01  3.53051216E+00  2.94124936E+00  6.83483096E-01
  2.22289916E-01  7.16168373E+01  1.30450963E+01  3.53051216E+00  2.94124936E+00
  6.83483096E-01  2.22289916E-01  7.16168373E+01  1.30450963E+01  3.53051216E+00
  2.94124936E+00  6.83483096E-01  2.22289916E-01  7.16168373E+01  1.30450963E+01
  3.53051216E+00  2.94124936E+00  6.83483096E-01  2.22289916E-01  7.16168373E+01
  1.30450963E+01  3.53051216E+00  2.94124936E+00  6.83483096E-01  2.22289916E-01
  3.42525091E+00  6.23913730E-01  1.68855404E-01  3.42525091E+00  6.23913730E-01
  1.68855404E-01  3.42525091E+00  6.23913730E-01  1.68855404E-01  7.16168373E+01
  1.30450963E+01  3.53051216E+00  2.94124936E+00  6.83483096E-01  2.22289916E-01
  7.16168373E+01  1.30450963E+01  3.53051216E+00  2.94124936E+00  6.83483096E-01
  2.22289916E-01  3.42525091E+00  6.23913730E-01  1.68855404E-01  3.42525091E+00
  6.23913730E-01  1.68855404E-01  3.42525091E+00  6.23913730E-01  1.68855404E-01
  7.16168373E+01  1.30450963E+01  3.53051216E+00  2.94124936E+00  6.83483096E-01
  2.22289916E-01  3.42525091E+00  6.23913730E-01  1.68855404E-01  7.16168373E+01
  1.30450963E+01  3.53051216E+00  2.94124936E+00  6.83483096E-01  2.22289916E-01
  3.42525091E+00  6.23913730E-01  1.68855404E-01  3.42525091E+00  6.23913730E-01
  1.68855404E-01  7.16168373E+01  1.30450963E+01  3.53051216E+00  2.94124936E+00
  6.83483096E-01  2.22289916E-01  3.42525091E+00  6.23913730E-01  1.68855404E-01
Contraction coefficients                   R   N=          90
  1.54328967E-01  5.35328142E-01  4.44634542E-01 -9.99672292E-02  3.99512826E-01
  7.00115469E-01  1.54328967E-01  5.35328142E-01  4.44634542E-01 -9.99672292E-02
  3.99512826E-01  7.00115469E-01  1.54328967E-01  5.35328142E-01  4.44634542E-01
 -9.99672292E-02  3.99512826E-01  7.00115469E-01  1.54328967E-01  5.35328142E-01
  4.44634542E-01 -9.99672292E-02  3.99512826E-01  7.00115469E-01  1.54328967E-01
  5.35328142E-01  4.44634542E-01 -9.99672292E-02  3.99512826E-01  7.00115469E-01
  1.54328967E-01  5.35328142E-01  4.44634542E-01  1.54328967E-01  5.35328142E-01
  4.44634542E-01  1.54328967E-01  5.35328142E-01  4.44634542E-01  1.54328967E-01
  5.35328142E-01  4.44634542E-01 -9.99672292E-02  3.99512826E-01  7.00115469E-01
  1.54328967E-01  5.35328142E-01  4.44634542E-01 -9.99672292E-02  3.99512826E-01
  7.00115469E-01  1.54328967E-01  5.35328142E-01  4.44634542E-01  1.54328967E-01
  5.35328142E-01  4.44634542E-01  1.54328967E-01  5.35328142E-01  4.44634542E-01
  1.54328967E-01  5.35328142E-01  4.44634542E-01 -9.99672292E-02  3.99512826E-01
  7.00115469E-01  1.54328967E-01  5.35328142E-01  4.44634542E-01  1.54328967E-01
  5.35328142E-01  4.44634542E-01 -9.99672292E-02  3.99512826E-01  7.00115469E-01
  1.54328967E-01  5.35328142E-01  4.44634542E-01  1.54328967E-01  5.35328142E-01
  4.44634542E-01  1.54328967E-01  5.35328142E-01  4.44634542E-01 -9.99672292E-02
  3.99512826E-01  7.00115469E-01  1.54328967E-01  5.35328142E-01  4.44634542E-01
P(S=P) Contraction coefficients            R   N=          90
  0.00000000E+00  0.00000000E+00  0.00000000E+00  1.55916275E-01  6.07683719E-01
  3.91957393E-01  0.00000000E+00  0.00000000E+00  0.00000000E+00  1.55916275E-01
  6.07683719E-01  3.91957393E-01  0.00000000E+00  0.00000000E+00  0.00000000E+00
  1.55916275E-01  6.07683719E-01  3.91957393E-01  0.00000000E+00  0.00000000E+00
  0.00000000E+00  1.55916275E-01  6.07683719E-01  3.91957393E-01  0.00000000E+00
  0.00000000E+00  0.00000000E+00  1.55916275E-01  6.07683719E-01  3.91957393E-01
  0.00000000E+00  0.00000000E+00  0.00000000E+00  0.00000000E+00  0.00000000E+00
  0.00000000E+00  0.00000000E+00  0.00000000E+00  0.00000000E+00  0.00000000E+00
  0.00000000E+00  0.00000000E+00  1.55916275E-01  6.07683719E-01  3.91957393E-01
  0.00000000E+00  0.00000000E+00  0.00000000E+00  1.55916275E-01  6.07683719E-01
  3.91957393E-01  0.00000000E+00  0.00000000E+00  0.00000000E+00  0.00000000E+00
  0.00000000E+00  0.00000000E+00  0.00000000E+00  0.00000000E+00  0.00000000E+00
  0.00000000E+00  0.00000000E+00  0.00000000E+00  1.55916275E-01  6.07683719E-01
  3.91957393E-01  0.00000000E+00  0.00000000E+00  0.00000000E+00  0.00000000E+00
  0.00000000E+00  0.00000000E+00  1.55916275E-01  6.07683719E-01  3.91957393E-01
  0.00000000E+00  0.00000000E+00  0.00000000E+00  0.00000000E+00  0.00000000E+00
  0.00000000E+00  0.00000000E+00  0.00000000E+00  0.00000000E+00  1.55916275E-01
  6.07683719E-01  3.91957393E-01  0.00000000E+00  0.00000000E+00  0.00000000E+00
Coordinates of each shell                  R   N=          90
  5.09243398E-01 -2.66468392E+00  0.00000000E+00  5.09243398E-01 -2.66468392E+00
  0.00000000E+00 -2.01208590E+00 -1.73987085E+00  0.00000000E+00 -2.01208590E+00
 -1.73987085E+00  0.00000000E+00 -2.50469971E+00  8.63661535E-01  0.00000000E+00
 -2.50469971E+00  8.63661535E-01  0.00000000E+00 -5.09243398E-01  2.66468392E+00
  0.00000000E+00 -5.09243398E-01  2.66468392E+00  0.00000000E+00  2.01208590E+00
  1.73987085E+00  0.00000000E+00  2.01208590E+00  1.73987085E+00  0.00000000E+00
 -3.59885114E+00 -3.07571825E+00  0.00000000E+00 -4.46876767E+00  1.53666860E+00
  0.00000000E+00  3.59885114E+00  3.07571825E+00  0.00000000E+00 -1.14088436E+00
  5.42336282E+00  0.00000000E+00 -1.14088436E+00  5.42336282E+00  0.00000000E+00
  5.09243398E-01  7.35471962E+00  0.00000000E+00  5.09243398E-01  7.35471962E+00
  0.00000000E+00  2.56090016E+00  7.07137409E+00  0.00000000E+00 -3.17833038E+00
  5.83927265E+00  0.00000000E+00 -1.39896426E-01  9.32196232E+00  0.00000000E+00
  1.14088436E+00 -5.42336282E+00  0.00000000E+00  1.14088436E+00 -5.42336282E+00
  0.00000000E+00  3.17833038E+00 -5.83927265E+00  0.00000000E+00 -5.09243398E-01
 -7.35471962E+00  0.00000000E+00 -5.09243398E-01 -7.35471962E+00  0.00000000E+00
 -2.56090016E+00 -7.07137409E+00  0.00000000E+00  1.39896426E-01 -9.32196232E+00
  0.00000000E+00  2.50469971E+00 -8.63661535E-01  0.00000000E+00  2.50469971E+00
 -8.63661535E-01  0.00000000E+00  4.46876767E+00 -1.53666860E+00  0.00000000E+00
Constraint Structure                       R   N=          60
  5.09243398E-01 -2.66468392E+00  0.00000000E+00 -2.01208590E+00 -1.73987085E+00
  0.00000000E+00 -2.50469971E+00  8.63661535E-01  0.00000000E+00 -5.09243398E-01
  2.66468392E+00  0.00000000E+00  2.01208590E+00  1.73987085E+00  0.00000000E+00
 -3.59885114E+00 -3.07571825E+00  0.00000000E+00 -4.46876767E+00  1.53666860E+00
  0.00000000E+00  3.59885114E+00  3.07571825E+00  0.00000000E+00 -1.14088436E+00
  5.42336282E+00  0.00000000E+00  5.09243398E-01  7.35471962E+00  0.00000000E+00
  2.56090016E+00  7.07137409E+00  0.00000000E+00 -3.17833038E+00  5.83927265E+00
  0.00000000E+00 -1.39896426E-01  9.32196232E+00  0.00000000E+00  1.14088436E+00
 -5.42336282E+00  0.00000000E+00  3.17833038E+00 -5.83927265E+00  0.00000000E+00
 -5.09243398E-01 -7.35471962E+00  0.00000000E+00 -2.56090016E+00 -7.07137409E+00
  0.00000000E+00  1.39896426E-01 -9.32196232E+00  0.00000000E+00  2.50469971E+00
 -8.63661535E-01  0.00000000E+00  4.46876767E+00 -1.53666860E+00  0.00000000E+00
Num ILSW                                   I              100
ILSW                                       I   N=         100
           0           0           0           0           2           0
           0           0           0           0         402          -1
           0           0           0           0           0           0
           0           0           0           0           0           0
           1           0           0           0           0           0
           0           0      100000           0          -1           0
           0           0           0           0           0           0
           0           0           0           1           0           0
           0           0           1           0           0           0
           0           0           4          40           0           0
           0           0           5           0           0           0
           0           0           0           0           0           0
           0           0           0           0           0           0
           0           0           0           0           0           0
           0           0           0           0           0           0
           0           0           0           0           0           0
           0           0           0           0
Num RLSW                                   I               40
RLSW                                       R   N=          40
  8.00000000E-01  7.20000000E-01  1.00000000E+00  8.10000000E-01  2.00000000E-01
  0.00000000E+00  0.00000000E+00  1.00000000E+00  0.00000000E+00  0.00000000E+00
  0.00000000E+00  0.00000000E+00  1.00000000E+00  0.00000000E+00  0.00000000E+00
  0.00000000E+00  0.00000000E+00  1.00000000E+00  0.00000000E+00  0.00000000E+00
  0.00000000E+00  0.00000000E+00  1.00000000E+00  0.00000000E+00  0.00000000E+00
  0.00000000E+00  0.00000000E+00  1.00000000E+00  0.00000000E+00  0.00000000E+00
  0.00000000E+00  0.00000000E+00  0.00000000E+00  0.00000000E+00  0.00000000E+00
  0.00000000E+00  0.00000000E+00  0.00000000E+00  1.00000000E+00  1.00000000E+00
MxBond                                     I                3
NBond                                      I   N=          20
           3           3           3           3           3           1
           1           1           3           3           1           1
           1           3           1           3           1           1
           3           1
IBond                                      I   N=          60
           2          14          19           1           3           6
           2           4           7           3           5           9
           4           8          19           2           0           0
           3           0           0           5           0           0
           4          10          12           9          11          13
          10           0           0           9           0           0
          10           0           0           1          15          16
          14           0           0          14          17          18
          16           0           0          16           0           0
           1           5          20          19           0           0
RBond                                      R   N=          60
  1.50000000E+00  1.00000000E+00  1.50000000E+00  1.50000000E+00  1.50000000E+00
  1.00000000E+00  1.50000000E+00  1.50000000E+00  1.00000000E+00  1.50000000E+00
  1.50000000E+00  1.00000000E+00  1.50000000E+00  1.00000000E+00  1.50000000E+00
  1.00000000E+00  0.00000000E+00  0.00000000E+00  1.00000000E+00  0.00000000E+00
  0.00000000E+00  1.00000000E+00  0.00000000E+00  0.00000000E+00  1.00000000E+00
  2.00000000E+00  1.00000000E+00  2.00000000E+00  1.00000000E+00  1.00000000E+00
  1.00000000E+00  0.00000000E+00  0.00000000E+00  1.00000000E+00  0.00000000E+00
  0.00000000E+00  1.00000000E+00  0.00000000E+00  0.00000000E+00  1.00000000E+00
  1.00000000E+00  2.00000000E+00  1.00000000E+00  0.00000000E+00  0.00000000E+00
  2.00000000E+00  1.00000000E+00  1.00000000E+00  1.00000000E+00  0.00000000E+00
  0.00000000E+00  1.00000000E+00  0.00000000E+00  0.00000000E+00  1.50000000E+00
  1.50000000E+00  1.00000000E+00  1.00000000E+00  0.00000000E+00  0.00000000E+00
Virial Ratio                               R      2.017190243892651E+00
SCF Energy                                 R     -3.823082665788634E+02
Total Energy                               R     -3.823082665788634E+02
RMS Density                                R      3.542899300386534E-09
External E-field                           R   N=          35
  0.00000000E+00  0.00000000E+00  0.00000000E+00  0.00000000E+00  0.00000000E+00
  0.00000000E+00  0.00000000E+00  0.00000000E+00  0.00000000E+00  0.00000000E+00
  0.00000000E+00  0.00000000E+00  0.00000000E+00  0.00000000E+00  0.00000000E+00
  0.00000000E+00  0.00000000E+00  0.00000000E+00  0.00000000E+00  0.00000000E+00
  0.00000000E+00  0.00000000E+00  0.00000000E+00  0.00000000E+00  0.00000000E+00
  0.00000000E+00  0.00000000E+00  0.00000000E+00  0.00000000E+00  0.00000000E+00
  0.00000000E+00  0.00000000E+00  0.00000000E+00  0.00000000E+00  0.00000000E+00
IOpCl                                      I                0
IROHF                                      I                0
Alpha Orbital Energies                     R   N=          60
 -1.00202095E+01 -1.00201621E+01 -1.00081158E+01 -1.00081148E+01 -1.00067889E+01
 -1.00067844E+01 -1.00060519E+01 -1.00059142E+01 -9.99233073E+00 -9.99233065E+00
 -8.09506299E-01 -7.53986819E-01 -7.17966840E-01 -6.99780198E-01 -6.67506490E-01
 -5.88690794E-01 -5.58922382E-01 -5.31666380E-01 -5.10167647E-01 -4.57444899E-01
 -4.39365118E-01 -4.10597698E-01 -3.97956262E-01 -3.96070227E-01 -3.73964606E-01
 -3.51151383E-01 -3.47294516E-01 -3.24506742E-01 -3.11253346E-01 -2.92784509E-01
 -2.87457177E-01 -2.63547299E-01 -2.12448698E-01 -1.95049391E-01 -1.53085134E-01
  3.74226123E-02  9.03642854E-02  1.10613448E-01  1.82204597E-01  2.72527173E-01
  3.32228447E-01  3.40725813E-01  3.79363833E-01  3.81453295E-01  4.10966210E-01
  4.11949416E-01  4.26761582E-01  4.39641314E-01  4.52761317E-01  4.78260808E-01
  5.26243804E-01  5.45824619E-01  5.76012368E-01  5.99439359E-01  6.24984027E-01
  6.39713913E-01  6.82798233E-01  7.17249408E-01  7.79560422E-01  7.94579696E-01
Alpha MO coefficients                      R   N=        3600
  6.99293878E-01  3.15673513E-02 -5.32919364E-05  9.12450134E-04  0.00000000E+00
 -1.91482162E-02 -7.71299776E-03 -4.20385917E-03  1.23239732E-03  0.00000000E+00
  1.85785165E-02  7.72504641E-03  3.46073564E-03  2.71860759E-03  0.00000000E+00
 -6.99293878E-01 -3.15673513E-02 -5.32919364E-05  9.12450134E-04  0.00000000E+00
  1.91482162E-02  7.71299776E-03 -4.20385917E-03  1.23239732E-03  0.00000000E+00
  3.32652424E-04 -3.32906836E-04 -3.32652424E-04  2.74420679E-02  6.72594788E-03
  1.00511727E-03 -3.94792248E-03  0.00000000E+00 -1.80400768E-04 -4.74547117E-04
 -1.13093066E-05  2.82191948E-04  0.00000000E+00  1.48426845E-04 -3.26000804E-04
  2.87440600E-05 -2.74420679E-02 -6.72594788E-03  1.00511727E-03 -3.94792248E-03
  0.00000000E+00  3.26000804E-04  1.80400768E-04  4.74547117E-04 -1.13093066E-05
  2.82191948E-04  0.00000000E+00 -1.48426845E-04 -2.87440600E-05 -1.85785165E-02
 -7.72504641E-03  3.46073564E-03  2.71860759E-03  0.00000000E+00  3.32906836E-04
  6.99291595E-01  3.13607028E-02  7.30927418E-06  6.43764336E-04  0.00000000E+00
 -1.94057338E-02 -6.87905099E-03 -4.10469636E-03  1.66267101E-03  0.00000000E+00
 -1.90566123E-02 -6.91296143E-03 -3.24305763E-03 -3.08273824E-03  0.00000000E+00
  6.99291595E-01  3.13607028E-02 -7.30927418E-06 -6.43764336E-04  0.00000000E+00
 -1.94057338E-02 -6.87905099E-03  4.10469636E-03 -1.66267101E-03  0.00000000E+00
  2.22935590E-04  2.19901140E-04  2.22935590E-04 -2.78061762E-02 -6.79384537E-03
 -1.01377065E-03  3.98534727E-03  0.00000000E+00  1.94217875E-04  4.77766947E-04
  1.08619689E-05 -2.88863923E-04  0.00000000E+00 -1.40589640E-04  3.37264221E-04
 -2.78400672E-05 -2.78061762E-02 -6.79384537E-03  1.01377065E-03 -3.98534727E-03
  0.00000000E+00  3.37264221E-04  1.94217875E-04  4.77766947E-04 -1.08619689E-05
  2.88863923E-04  0.00000000E+00 -1.40589640E-04 -2.78400672E-05 -1.90566123E-02
 -6.91296143E-03  3.24305763E-03  3.08273824E-03  0.00000000E+00  2.19901140E-04
 -2.80460604E-02  4.12519904E-03  7.75447592E-04 -4.12996133E-03  0.00000000E+00
  7.70876920E-03  4.41858118E-04  1.31350980E-04  7.85588333E-05  0.00000000E+00
 -8.72274138E-03 -5.31630527E-04 -1.28752248E-04  2.13250208E-06  0.00000000E+00
  2.80460604E-02 -4.12519904E-03  7.75447592E-04 -4.12996133E-03  0.00000000E+00
 -7.70876920E-03 -4.41858118E-04  1.31350980E-04  7.85588333E-05  0.00000000E+00
  5.99423542E-05  7.59081106E-05 -5.99423542E-05  6.99825103E-01  3.07840527E-02
  7.15622732E-04  1.09296032E-03  0.00000000E+00 -8.11046921E-03 -7.61385630E-03
  2.95709830E-03  3.51525551E-03  0.00000000E+00  1.86288118E-04 -6.42293628E-03
  2.15861737E-04 -6.99825103E-01 -3.07840527E-02  7.15622732E-04  1.09296032E-03
  0.00000000E+00  6.42293628E-03  8.11046921E-03  7.61385630E-03  2.95709830E-03
  3.51525551E-03  0.00000000E+00 -1.86288118E-04 -2.15861737E-04  8.72274138E-03
  5.31630527E-04 -1.28752248E-04  2.13250208E-06  0.00000000E+00 -7.59081106E-05
  2.82520112E-02 -4.07060208E-03 -7.66947122E-04  4.10290405E-03  0.00000000E+00
 -1.02828958E-02 -4.22753800E-04 -2.09528288E-04 -1.74804087E-05  0.00000000E+00
 -1.15886213E-02 -5.56936167E-04 -1.88606869E-04 -6.52121900E-05  0.00000000E+00
  2.82520112E-02 -4.07060208E-03  7.66947122E-04 -4.10290405E-03  0.00000000E+00
 -1.02828958E-02 -4.22753800E-04  2.09528288E-04  1.74804087E-05  0.00000000E+00
 -6.15832100E-05  8.12207018E-05 -6.15832100E-05  6.99743281E-01  3.07655065E-02
  7.13021190E-04  1.10322932E-03  0.00000000E+00 -8.10395091E-03 -7.61223847E-03
  2.95745347E-03  3.51341437E-03  0.00000000E+00  1.86660511E-04 -6.42070416E-03
  2.16090574E-04  6.99743281E-01  3.07655065E-02 -7.13021190E-04 -1.10322932E-03
  0.00000000E+00 -6.42070416E-03 -8.10395091E-03 -7.61223847E-03 -2.95745347E-03
 -3.51341437E-03  0.00000000E+00  1.86660511E-04  2.16090574E-04 -1.15886213E-02
 -5.56936167E-04  1.88606869E-04  6.52121900E-05  0.00000000E+00  8.12207018E-05
  2.75271842E-02 -7.89458946E-03  2.03306694E-03 -2.83547967E-03  0.00000000E+00
  6.12851601E-01  3.03509021E-02  1.67903000E-04  2.87674489E-03  0.00000000E+00
 -3.37183419E-01 -2.07622921E-02 -1.18711705E-03  4.10922897E-03  0.00000000E+00
 -2.75271842E-02  7.89458946E-03  2.03306694E-03 -2.83547967E-03  0.00000000E+00
 -6.12851601E-01 -3.03509021E-02  1.67903000E-04  2.87674489E-03  0.00000000E+00
 -5.63960865E-03  3.20948725E-03  5.63960865E-03 -9.94491613E-03 -5.58888973E-04
 -5.03005511E-05 -4.38823736E-05  0.00000000E+00  9.26838290E-04  2.35497336E-04
 -2.95412322E-06 -1.23700567E-04  0.00000000E+00 -1.58965303E-04  1.41820232E-04
  1.02393494E-05  9.94491613E-03  5.58888973E-04 -5.03005511E-05 -4.38823736E-05
  0.00000000E+00 -1.41820232E-04 -9.26838290E-04 -2.35497336E-04 -2.95412322E-06
 -1.23700567E-04  0.00000000E+00  1.58965303E-04 -1.02393494E-05  3.37183419E-01
  2.07622921E-02 -1.18711705E-03  4.10922897E-03  0.00000000E+00 -3.20948725E-03
  7.08699126E-03 -1.76832614E-03  5.19041935E-03  2.74117013E-04  0.00000000E+00
  5.97687576E-01  2.97267983E-02 -5.07644686E-05  2.83865052E-03  0.00000000E+00
 -3.64378768E-01 -2.16535978E-02 -1.11558969E-03  3.91877887E-03  0.00000000E+00
  7.08699126E-03 -1.76832614E-03 -5.19041935E-03 -2.74117013E-04  0.00000000E+00
  5.97687576E-01  2.97267983E-02  5.07644686E-05 -2.83865052E-03  0.00000000E+00
 -5.51865954E-03  3.38121236E-03 -5.51865954E-03  2.47270012E-03  1.01943472E-04
  1.10712190E-04  6.23569692E-05  0.00000000E+00 -4.42960939E-04 -1.02060387E-04
 -2.22594245E-05  3.82992212E-05  0.00000000E+00  1.60485818E-04 -4.70974423E-05
 -5.55587904E-06  2.47270012E-03  1.01943472E-04 -1.10712190E-04 -6.23569692E-05
  0.00000000E+00 -4.70974423E-05 -4.42960939E-04 -1.02060387E-04  2.22594245E-05
 -3.82992212E-05  0.00000000E+00  1.60485818E-04 -5.55587904E-06 -3.64378768E-01
 -2.16535978E-02  1.11558969E-03 -3.91877887E-03  0.00000000E+00  3.38121236E-03
 -7.58029848E-03  2.29142311E-03  4.71375938E-03  1.84474569E-03  0.00000000E+00
  3.38542725E-01  9.14267737E-03  9.98961849E-04 -3.43664307E-03  0.00000000E+00
  6.13604511E-01  2.39303512E-02  3.62019432E-04  1.64109799E-03  0.00000000E+00
  7.58029848E-03 -2.29142311E-03  4.71375938E-03  1.84474569E-03  0.00000000E+00
 -3.38542725E-01 -9.14267737E-03  9.98961849E-04 -3.43664307E-03  0.00000000E+00
 -2.89702426E-03 -5.44385136E-03  2.89702426E-03  3.65461466E-03  2.08093493E-04
 -4.18105377E-06  2.64073615E-05  0.00000000E+00  8.59122391E-05 -5.00803244E-05
  4.63191861E-05  2.37243205E-05  0.00000000E+00 -6.42173751E-05 -6.38738235E-05
  8.64025724E-06 -3.65461466E-03 -2.08093493E-04 -4.18105377E-06  2.64073615E-05
  0.00000000E+00  6.38738235E-05 -8.59122391E-05  5.00803244E-05  4.63191861E-05
  2.37243205E-05  0.00000000E+00  6.42173751E-05 -8.64025724E-06 -6.13604511E-01
 -2.39303512E-02  3.62019432E-04  1.64109799E-03  0.00000000E+00  5.44385136E-03
  2.83716568E-02 -7.32039120E-03 -6.42230253E-04 -3.16015704E-03  0.00000000E+00
  3.64661183E-01  1.04293666E-02  7.48344860E-04 -3.38047277E-03  0.00000000E+00
  5.97851120E-01  2.28429688E-02 -5.86126302E-05  1.85772359E-03  0.00000000E+00
  2.83716568E-02 -7.32039120E-03  6.42230253E-04  3.16015704E-03  0.00000000E+00
  3.64661183E-01  1.04293666E-02 -7.48344860E-04  3.38047277E-03  0.00000000E+00
 -3.31806402E-03 -5.46179143E-03 -3.31806402E-03  1.42141940E-02  6.20489302E-04
  1.16813109E-06  1.73111143E-04  0.00000000E+00 -1.08281505E-03 -2.82765807E-04
  4.01650699E-05  1.66993898E-04  0.00000000E+00  7.24649100E-05 -2.20861063E-04
 -1.07944702E-05  1.42141940E-02  6.20489302E-04 -1.16813109E-06 -1.73111143E-04
  0.00000000E+00 -2.20861063E-04 -1.08281505E-03 -2.82765807E-04 -4.01650699E-05
 -1.66993898E-04  0.00000000E+00  7.24649100E-05 -1.07944702E-05  5.97851120E-01
  2.28429688E-02  5.86126302E-05 -1.85772359E-03  0.00000000E+00 -5.46179143E-03
 -1.78632883E-04 -1.58822308E-04  2.08637645E-05  4.96970302E-05  0.00000000E+00
 -7.90029157E-04  1.48291942E-05  9.04326707E-06 -1.04786070E-04  0.00000000E+00
  2.83916725E-04 -2.19204930E-06 -4.29609283E-06 -8.07263607E-05  0.00000000E+00
  1.78632883E-04  1.58822308E-04  2.08637645E-05  4.96970302E-05  0.00000000E+00
  7.90029157E-04 -1.48291942E-05  9.04326707E-06 -1.04786070E-04  0.00000000E+00
 -1.00802452E-04 -1.18364108E-05  1.00802452E-04  8.99935140E-03 -6.89125832E-03