Title Card Required                                                     
FOpt      RB3LYP                                                      STO-3G              
Number of atoms                            I               20
Info1-9                                    I   N=           9
         105          84           0           0           0         110
           2          18        -502
Charge                                     I                0
Multiplicity                               I                1
Number of electrons                        I               70
Number of alpha electrons                  I               35
Number of beta electrons                   I               35
Number of basis functions                  I               60
Number of independent functions            I               60
Number of point charges in /Mol/           I                0
Number of translation vectors              I                0
Atomic numbers                             I   N=          20
           6           6           6           6           6           1
           1           1           6           6           1           1
           1           6           1           6           1           1
           6           1
Nuclear charges                            R   N=          20
  6.00000000E+00  6.00000000E+00  6.00000000E+00  6.00000000E+00  6.00000000E+00
  1.00000000E+00  1.00000000E+00  1.00000000E+00  6.00000000E+00  6.00000000E+00
  1.00000000E+00  1.00000000E+00  1.00000000E+00  6.00000000E+00  1.00000000E+00
  6.00000000E+00  1.00000000E+00  1.00000000E+00  6.00000000E+00  1.00000000E+00
Current cartesian coordinates              R   N=          60
  5.09244761E-01 -2.66467845E+00  7.53901743E-17 -2.01209005E+00 -1.73987037E+00
  7.53901743E-17 -2.50470694E+00  8.63659068E-01  7.53901743E-17 -5.09244761E-01
  2.66467845E+00  7.53901743E-17  2.01209005E+00  1.73987037E+00  7.53901743E-17
 -3.59885969E+00 -3.07571033E+00  7.53901743E-17 -4.46877190E+00  1.53666286E+00
  7.53901743E-17  3.59885969E+00  3.07571033E+00  7.53901743E-17 -1.14088771E+00
  5.42335654E+00  7.53901743E-17  5.09244761E-01  7.35472343E+00  7.53901743E-17
  2.56089280E+00  7.07138017E+00  7.53901743E-17 -3.17833859E+00  5.83926206E+00
  7.53901743E-17 -1.39895138E-01  9.32196124E+00  7.53901743E-17  1.14088771E+00
 -5.42335654E+00  7.53901743E-17  3.17833859E+00 -5.83926206E+00  7.53901743E-17
 -5.09244761E-01 -7.35472343E+00  7.53901743E-17 -2.56089280E+00 -7.07138017E+00
  7.53901743E-17  1.39895138E-01 -9.32196124E+00  7.53901743E-17  2.50470694E+00
 -8.63659068E-01  7.53901743E-17  4.46877190E+00 -1.53666286E+00  7.53901743E-17
Force Field                                I                0
Int Atom Types                             I   N=          20
           0           0           0           0           0           0
           0           0           0           0           0           0
           0           0           0           0           0           0
           0           0
MM charges                                 R   N=          20
  0.00000000E+00  0.00000000E+00  0.00000000E+00  0.00000000E+00  0.00000000E+00
  0.00000000E+00  0.00000000E+00  0.00000000E+00  0.00000000E+00  0.00000000E+00
  0.00000000E+00  0.00000000E+00  0.00000000E+00  0.00000000E+00  0.00000000E+00
  0.00000000E+00  0.00000000E+00  0.00000000E+00  0.00000000E+00  0.00000000E+00
Integer atomic weights                     I   N=          20
          12          12          12          12          12           1
           1           1          12          12           1           1
           1          12           1          12           1           1
          12           1
Real atomic weights                        R   N=          20
  1.20000000E+01  1.20000000E+01  1.20000000E+01  1.20000000E+01  1.20000000E+01
  1.00782504E+00  1.00782504E+00  1.00782504E+00  1.20000000E+01  1.20000000E+01
  1.00782504E+00  1.00782504E+00  1.00782504E+00  1.20000000E+01  1.00782504E+00
  1.20000000E+01  1.00782504E+00  1.00782504E+00  1.20000000E+01  1.00782504E+00
Atom fragment info                         I   N=          20
           0           0           0           0           0           0
           0           0           0           0           0           0
           0           0           0           0           0           0
           0           0
Atom residue num                           I   N=          20
           0           0           0           0           0           0
           0           0           0           0           0           0
           0           0           0           0           0           0
           0           0
Nuclear spins                              I   N=          20
           0           0           0           0           0           1
           1           1           0           0           1           1
           1           0           1           0           1           1
           0           1
Nuclear ZEff                               R   N=          20
 -3.60000000E+00 -3.60000000E+00 -3.60000000E+00 -3.60000000E+00 -3.60000000E+00
 -1.00000000E+00 -1.00000000E+00 -1.00000000E+00 -3.60000000E+00 -3.60000000E+00
 -1.00000000E+00 -1.00000000E+00 -1.00000000E+00 -3.60000000E+00 -1.00000000E+00
 -3.60000000E+00 -1.00000000E+00 -1.00000000E+00 -3.60000000E+00 -1.00000000E+00
Nuclear QMom                               R   N=          20
  0.00000000E+00  0.00000000E+00  0.00000000E+00  0.00000000E+00  0.00000000E+00
  0.00000000E+00  0.00000000E+00  0.00000000E+00  0.00000000E+00  0.00000000E+00
  0.00000000E+00  0.00000000E+00  0.00000000E+00  0.00000000E+00  0.00000000E+00
  0.00000000E+00  0.00000000E+00  0.00000000E+00  0.00000000E+00  0.00000000E+00
Nuclear GFac                               R   N=          20
  0.00000000E+00  0.00000000E+00  0.00000000E+00  0.00000000E+00  0.00000000E+00
  2.79284600E+00  2.79284600E+00  2.79284600E+00  0.00000000E+00  0.00000000E+00
  2.79284600E+00  2.79284600E+00  2.79284600E+00  0.00000000E+00  2.79284600E+00
  0.00000000E+00  2.79284600E+00  2.79284600E+00  0.00000000E+00  2.79284600E+00
MicOpt                                     I   N=          20
          -1          -1          -1          -1          -1          -1
          -1          -1          -1          -1          -1          -1
          -1          -1          -1          -1          -1          -1
          -1          -1
Number of contracted shells                I               30
Number of primitive shells                 I               90
Pure/Cartesian d shells                    I                0
Pure/Cartesian f shells                    I                0
Highest angular momentum                   I                1
Largest degree of contraction              I                3
Shell types                                I   N=          30
           0          -1           0          -1           0          -1
           0          -1           0          -1           0           0
           0           0          -1           0          -1           0
           0           0           0          -1           0           0
          -1           0           0           0          -1           0
Number of primitives per shell             I   N=          30
           3           3           3           3           3           3
           3           3           3           3           3           3
           3           3           3           3           3           3
           3           3           3           3           3           3
           3           3           3           3           3           3
Shell to atom map                          I   N=          30
           1           1           2           2           3           3
           4           4           5           5           6           7
           8           9           9          10          10          11
          12          13          14          14          15          16
          16          17          18          19          19          20
Primitive exponents                        R   N=          90
  7.16168373E+01  1.30450963E+01  3.53051216E+00  2.94124936E+00  6.83483096E-01
  2.22289916E-01  7.16168373E+01  1.30450963E+01  3.53051216E+00  2.94124936E+00
  6.83483096E-01  2.22289916E-01  7.16168373E+01  1.30450963E+01  3.53051216E+00
  2.94124936E+00  6.83483096E-01  2.22289916E-01  7.16168373E+01  1.30450963E+01
  3.53051216E+00  2.94124936E+00  6.83483096E-01  2.22289916E-01  7.16168373E+01
  1.30450963E+01  3.53051216E+00  2.94124936E+00  6.83483096E-01  2.22289916E-01
  3.42525091E+00  6.23913730E-01  1.68855404E-01  3.42525091E+00  6.23913730E-01
  1.68855404E-01  3.42525091E+00  6.23913730E-01  1.68855404E-01  7.16168373E+01
  1.30450963E+01  3.53051216E+00  2.94124936E+00  6.83483096E-01  2.22289916E-01
  7.16168373E+01  1.30450963E+01  3.53051216E+00  2.94124936E+00  6.83483096E-01
  2.22289916E-01  3.42525091E+00  6.23913730E-01  1.68855404E-01  3.42525091E+00
  6.23913730E-01  1.68855404E-01  3.42525091E+00  6.23913730E-01  1.68855404E-01
  7.16168373E+01  1.30450963E+01  3.53051216E+00  2.94124936E+00  6.83483096E-01
  2.22289916E-01  3.42525091E+00  6.23913730E-01  1.68855404E-01  7.16168373E+01
  1.30450963E+01  3.53051216E+00  2.94124936E+00  6.83483096E-01  2.22289916E-01
  3.42525091E+00  6.23913730E-01  1.68855404E-01  3.42525091E+00  6.23913730E-01
  1.68855404E-01  7.16168373E+01  1.30450963E+01  3.53051216E+00  2.94124936E+00
  6.83483096E-01  2.22289916E-01  3.42525091E+00  6.23913730E-01  1.68855404E-01
Contraction coefficients                   R   N=          90
  1.54328967E-01  5.35328142E-01  4.44634542E-01 -9.99672292E-02  3.99512826E-01
  7.00115469E-01  1.54328967E-01  5.35328142E-01  4.44634542E-01 -9.99672292E-02
  3.99512826E-01  7.00115469E-01  1.54328967E-01  5.35328142E-01  4.44634542E-01
 -9.99672292E-02  3.99512826E-01  7.00115469E-01  1.54328967E-01  5.35328142E-01
  4.44634542E-01 -9.99672292E-02  3.99512826E-01  7.00115469E-01  1.54328967E-01
  5.35328142E-01  4.44634542E-01 -9.99672292E-02  3.99512826E-01  7.00115469E-01
  1.54328967E-01  5.35328142E-01  4.44634542E-01  1.54328967E-01  5.35328142E-01
  4.44634542E-01  1.54328967E-01  5.35328142E-01  4.44634542E-01  1.54328967E-01
  5.35328142E-01  4.44634542E-01 -9.99672292E-02  3.99512826E-01  7.00115469E-01
  1.54328967E-01  5.35328142E-01  4.44634542E-01 -9.99672292E-02  3.99512826E-01
  7.00115469E-01  1.54328967E-01  5.35328142E-01  4.44634542E-01  1.54328967E-01
  5.35328142E-01  4.44634542E-01  1.54328967E-01  5.35328142E-01  4.44634542E-01
  1.54328967E-01  5.35328142E-01  4.44634542E-01 -9.99672292E-02  3.99512826E-01
  7.00115469E-01  1.54328967E-01  5.35328142E-01  4.44634542E-01  1.54328967E-01
  5.35328142E-01  4.44634542E-01 -9.99672292E-02  3.99512826E-01  7.00115469E-01
  1.54328967E-01  5.35328142E-01  4.44634542E-01  1.54328967E-01  5.35328142E-01
  4.44634542E-01  1.54328967E-01  5.35328142E-01  4.44634542E-01 -9.99672292E-02
  3.99512826E-01  7.00115469E-01  1.54328967E-01  5.35328142E-01  4.44634542E-01
P(S=P) Contraction coefficients            R   N=          90
  0.00000000E+00  0.00000000E+00  0.00000000E+00  1.55916275E-01  6.07683719E-01
  3.91957393E-01  0.00000000E+00  0.00000000E+00  0.00000000E+00  1.55916275E-01
  6.07683719E-01  3.91957393E-01  0.00000000E+00  0.00000000E+00  0.00000000E+00
  1.55916275E-01  6.07683719E-01  3.91957393E-01  0.00000000E+00  0.00000000E+00
  0.00000000E+00  1.55916275E-01  6.07683719E-01  3.91957393E-01  0.00000000E+00
  0.00000000E+00  0.00000000E+00  1.55916275E-01  6.07683719E-01  3.91957393E-01
  0.00000000E+00  0.00000000E+00  0.00000000E+00  0.00000000E+00  0.00000000E+00
  0.00000000E+00  0.00000000E+00  0.00000000E+00  0.00000000E+00  0.00000000E+00
  0.00000000E+00  0.00000000E+00  1.55916275E-01  6.07683719E-01  3.91957393E-01
  0.00000000E+00  0.00000000E+00  0.00000000E+00  1.55916275E-01  6.07683719E-01
  3.91957393E-01  0.00000000E+00  0.00000000E+00  0.00000000E+00  0.00000000E+00
  0.00000000E+00  0.00000000E+00  0.00000000E+00  0.00000000E+00  0.00000000E+00
  0.00000000E+00  0.00000000E+00  0.00000000E+00  1.55916275E-01  6.07683719E-01
  3.91957393E-01  0.00000000E+00  0.00000000E+00  0.00000000E+00  0.00000000E+00
  0.00000000E+00  0.00000000E+00  1.55916275E-01  6.07683719E-01  3.91957393E-01
  0.00000000E+00  0.00000000E+00  0.00000000E+00  0.00000000E+00  0.00000000E+00
  0.00000000E+00  0.00000000E+00  0.00000000E+00  0.00000000E+00  1.55916275E-01
  6.07683719E-01  3.91957393E-01  0.00000000E+00  0.00000000E+00  0.00000000E+00
Coordinates of each shell                  R   N=          90
  5.09244761E-01 -2.66467845E+00 -1.97215226E-31  5.09244761E-01 -2.66467845E+00
 -1.97215226E-31 -2.01209005E+00 -1.73987037E+00 -1.97215226E-31 -2.01209005E+00
 -1.73987037E+00 -1.97215226E-31 -2.50470694E+00  8.63659068E-01  0.00000000E+00
 -2.50470694E+00  8.63659068E-01  0.00000000E+00 -5.09244761E-01  2.66467845E+00
 -1.97215226E-31 -5.09244761E-01  2.66467845E+00 -1.97215226E-31  2.01209005E+00
  1.73987037E+00 -1.47911420E-31  2.01209005E+00  1.73987037E+00 -1.47911420E-31
 -3.59885969E+00 -3.07571033E+00 -2.95822839E-31 -4.46877190E+00  1.53666286E+00
 -1.97215226E-31  3.59885969E+00  3.07571033E+00 -9.86076132E-32 -1.14088771E+00
  5.42335654E+00  2.95822839E-31 -1.14088771E+00  5.42335654E+00  2.95822839E-31
  5.09244761E-01  7.35472343E+00  9.86076132E-31  5.09244761E-01  7.35472343E+00
  9.86076132E-31  2.56089280E+00  7.07138017E+00  2.21867130E-31 -3.17833859E+00
  5.83926206E+00 -1.97215226E-31 -1.39895138E-01  9.32196124E+00  3.94430453E-31
  1.14088771E+00 -5.42335654E+00  7.88860905E-31  1.14088771E+00 -5.42335654E+00
  7.88860905E-31  3.17833859E+00 -5.83926206E+00  7.88860905E-31 -5.09244761E-01
 -7.35472343E+00  1.18329136E-30 -5.09244761E-01 -7.35472343E+00  1.18329136E-30
 -2.56089280E+00 -7.07138017E+00  8.01186857E-31  1.39895138E-01 -9.32196124E+00
  5.91645679E-31  2.50470694E+00 -8.63659068E-01  0.00000000E+00  2.50470694E+00
 -8.63659068E-01  0.00000000E+00  4.46877190E+00 -1.53666286E+00  5.91645679E-31
Constraint Structure                       R   N=          60
  2.27837862E+00  1.27913891E+00 -4.93038066E-32  4.15825081E-03  2.59938439E+00
 -7.39557099E-32 -2.27837862E+00  1.30256090E+00  1.97215226E-31 -2.27837862E+00
 -1.27913891E+00  1.47911420E-31 -4.15825081E-03 -2.59938439E+00  1.47911420E-31
  1.27181648E-02  4.66846098E+00  4.93038066E-32 -4.06377772E+00  2.35225446E+00
  1.97215226E-31 -1.27181648E-02 -4.66846098E+00  4.43734259E-31 -4.71070576E+00
 -2.68193396E+00  3.45126646E-31 -4.87130733E+00 -5.21460905E+00  4.93038066E-31
 -3.12625883E+00 -6.35641267E+00 -1.72563323E-31 -6.42088341E+00 -1.50595785E+00
  2.95822839E-31 -6.64467802E+00 -6.18603509E+00  1.47911420E-31  4.71070576E+00
  2.68193396E+00 -4.43734259E-31  6.42088341E+00  1.50595785E+00 -9.86076132E-32
  4.87130733E+00  5.21460905E+00 -3.45126646E-31  3.12625883E+00  6.35641267E+00
 -1.72563323E-31  6.64467802E+00  6.18603509E+00 -6.40949485E-31  2.27837862E+00
 -1.30256090E+00  9.86076132E-32  4.06377772E+00 -2.35225446E+00  2.95822839E-31
Num ILSW                                   I              100
ILSW                                       I   N=         100
           0           0           0           0           2           0
           0           0           0           0         402          -1
           0           0           0           0           0           0
           0           0           0           0           1           0
           1           0           0           0           0           0
           0           0      100000           0          -1           0
           0           0           0           0           0           0
           0           0           0           1           0           0
           0           0           1           0           0           0
           0           0           4          40           0           0
           0           0           5           0           0           0
           0           0           0           0           0           0
           0           0           0           0           0           0
           0           0           0           0           0           0
           0           0           0           0           0           0
           0           0           0           0           0           0
           0           0           0           0
Num RLSW                                   I               40
RLSW                                       R   N=          40
  8.00000000E-01  7.20000000E-01  1.00000000E+00  8.10000000E-01  2.00000000E-01
  0.00000000E+00  0.00000000E+00  1.00000000E+00  0.00000000E+00  0.00000000E+00
  0.00000000E+00  0.00000000E+00  1.00000000E+00  0.00000000E+00  0.00000000E+00
  0.00000000E+00  0.00000000E+00  1.00000000E+00  0.00000000E+00  0.00000000E+00
  0.00000000E+00  0.00000000E+00  1.00000000E+00  0.00000000E+00  0.00000000E+00
  0.00000000E+00  0.00000000E+00  1.00000000E+00  0.00000000E+00  0.00000000E+00
  0.00000000E+00  0.00000000E+00  0.00000000E+00  0.00000000E+00  0.00000000E+00
  0.00000000E+00  0.00000000E+00  0.00000000E+00  1.00000000E+00  1.00000000E+00
MxBond                                     I                3
NBond                                      I   N=          20
           3           3           3           3           3           1
           1           1           3           3           1           1
           1           3           1           3           1           1
           3           1
IBond                                      I   N=          60
           2          14          19           1           3           6
           2           4           7           3           5           9
           4           8          19           2           0           0
           3           0           0           5           0           0
           4          10          12           9          11          13
          10           0           0           9           0           0
          10           0           0           1          15          16
          14           0           0          14          17          18
          16           0           0          16           0           0
           1           5          20          19           0           0
RBond                                      R   N=          60
  1.50000000E+00  1.00000000E+00  2.00000000E+00  1.50000000E+00  1.50000000E+00
  1.00000000E+00  1.50000000E+00  2.00000000E+00  1.00000000E+00  2.00000000E+00
  1.50000000E+00  1.00000000E+00  1.50000000E+00  1.00000000E+00  1.50000000E+00
  1.00000000E+00  0.00000000E+00  0.00000000E+00  1.00000000E+00  0.00000000E+00
  0.00000000E+00  1.00000000E+00  0.00000000E+00  0.00000000E+00  1.00000000E+00
  2.00000000E+00  1.00000000E+00  2.00000000E+00  1.00000000E+00  1.00000000E+00
  1.00000000E+00  0.00000000E+00  0.00000000E+00  1.00000000E+00  0.00000000E+00
  0.00000000E+00  1.00000000E+00  0.00000000E+00  0.00000000E+00  1.00000000E+00
  1.00000000E+00  2.00000000E+00  1.00000000E+00  0.00000000E+00  0.00000000E+00
  2.00000000E+00  1.00000000E+00  1.00000000E+00  1.00000000E+00  0.00000000E+00
  0.00000000E+00  1.00000000E+00  0.00000000E+00  0.00000000E+00  2.00000000E+00
  1.50000000E+00  1.00000000E+00  1.00000000E+00  0.00000000E+00  0.00000000E+00
Virial Ratio                               R      2.017190277373639E+00
SCF Energy                                 R     -3.823082665797068E+02
Total Energy                               R     -3.823082665797068E+02
RMS Force                                  R      1.617096839658764E-05
RMS Density                                R      5.738610654778848E-09
External E-field                           R   N=          35
  0.00000000E+00  0.00000000E+00  0.00000000E+00  0.00000000E+00  0.00000000E+00
  0.00000000E+00  0.00000000E+00  0.00000000E+00  0.00000000E+00  0.00000000E+00
  0.00000000E+00  0.00000000E+00  0.00000000E+00  0.00000000E+00  0.00000000E+00
  0.00000000E+00  0.00000000E+00  0.00000000E+00  0.00000000E+00  0.00000000E+00
  0.00000000E+00  0.00000000E+00  0.00000000E+00  0.00000000E+00  0.00000000E+00
  0.00000000E+00  0.00000000E+00  0.00000000E+00  0.00000000E+00  0.00000000E+00
  0.00000000E+00  0.00000000E+00  0.00000000E+00  0.00000000E+00  0.00000000E+00
IOpCl                                      I                0
IROHF                                      I                0
Alpha Orbital Energies                     R   N=          60
 -1.00202096E+01 -1.00201622E+01 -1.00081156E+01 -1.00081147E+01 -1.00067891E+01
 -1.00067846E+01 -1.00060521E+01 -1.00059144E+01 -9.99233024E+00 -9.99233016E+00
 -8.09506044E-01 -7.53985781E-01 -7.17965521E-01 -6.99781044E-01 -6.67505471E-01
 -5.88691333E-01 -5.58922454E-01 -5.31666692E-01 -5.10168323E-01 -4.57444502E-01
 -4.39364771E-01 -4.10598086E-01 -3.97956328E-01 -3.96069621E-01 -3.73965796E-01
 -3.51150553E-01 -3.47294936E-01 -3.24506502E-01 -3.11253686E-01 -2.92784289E-01
 -2.87458000E-01 -2.63546335E-01 -2.12447423E-01 -1.95050013E-01 -1.53084131E-01
  3.74216964E-02  9.03642882E-02  1.10612300E-01  1.82203538E-01  2.72526471E-01
  3.32229756E-01  3.40727290E-01  3.79364487E-01  3.81454153E-01  4.10968736E-01
  4.11951170E-01  4.26761938E-01  4.39639582E-01  4.52761850E-01  4.78263018E-01
  5.26242422E-01  5.45823720E-01  5.76012319E-01  5.99439506E-01  6.24983049E-01
  6.39713227E-01  6.82794774E-01  7.17243888E-01  7.79557628E-01  7.94578935E-01
Alpha MO coefficients                      R   N=        3600
  6.99293897E-01  3.15673155E-02 -5.32799692E-05  9.12426380E-04  0.00000000E+00
 -1.91484619E-02 -7.71298502E-03 -4.20385026E-03  1.23238119E-03  0.00000000E+00
  1.85786539E-02  7.72503858E-03  3.46073883E-03  2.71859242E-03  0.00000000E+00
 -6.99293897E-01 -3.15673155E-02 -5.32799692E-05  9.12426380E-04  0.00000000E+00
  1.91484619E-02  7.71298502E-03 -4.20385026E-03  1.23238119E-03  0.00000000E+00
  3.32655436E-04 -3.32908765E-04 -3.32655436E-04  2.74414119E-02  6.72591807E-03
  1.00511804E-03 -3.94792679E-03  0.00000000E+00 -1.80415637E-04 -4.74536817E-04
 -1.13129220E-05  2.82187874E-04  0.00000000E+00  1.48426206E-04 -3.25994912E-04
  2.87434460E-05 -2.74414119E-02 -6.72591807E-03  1.00511804E-03 -3.94792679E-03
  0.00000000E+00  3.25994912E-04  1.80415637E-04  4.74536817E-04 -1.13129220E-05
  2.82187874E-04  0.00000000E+00 -1.48426206E-04 -2.87434460E-05 -1.85786539E-02
 -7.72503858E-03  3.46073883E-03  2.71859242E-03  0.00000000E+00  3.32908765E-04
  6.99291611E-01  3.13606642E-02  7.32108887E-06  6.43732133E-04  0.00000000E+00
 -1.94060675E-02 -6.87903670E-03 -4.10469596E-03  1.66265385E-03  0.00000000E+00
 -1.90567793E-02 -6.91294747E-03 -3.24306046E-03 -3.08272442E-03  0.00000000E+00
  6.99291611E-01  3.13606642E-02 -7.32108887E-06 -6.43732133E-04  0.00000000E+00
 -1.94060675E-02 -6.87903670E-03  4.10469596E-03 -1.66265385E-03  0.00000000E+00
  2.22934963E-04  2.19901789E-04  2.22934963E-04 -2.78055227E-02 -6.79381760E-03
 -1.01377191E-03  3.98535305E-03  0.00000000E+00  1.94232661E-04  4.77756597E-04
  1.08656072E-05 -2.88859910E-04  0.00000000E+00 -1.40588944E-04  3.37258447E-04
 -2.78394374E-05 -2.78055227E-02 -6.79381760E-03  1.01377191E-03 -3.98535305E-03
  0.00000000E+00  3.37258447E-04  1.94232661E-04  4.77756597E-04 -1.08656072E-05
  2.88859910E-04  0.00000000E+00 -1.40588944E-04 -2.78394374E-05 -1.90567793E-02
 -6.91294747E-03  3.24306046E-03  3.08272442E-03  0.00000000E+00  2.19901789E-04
 -2.80452794E-02  4.12519798E-03  7.75458078E-04 -4.12997303E-03  0.00000000E+00
  7.71106519E-03  4.41971136E-04  1.31345097E-04  7.85714311E-05  0.00000000E+00
 -8.72461129E-03 -5.31727599E-04 -1.28750923E-04  2.14893708E-06  0.00000000E+00
  2.80452794E-02 -4.12519798E-03  7.75458078E-04 -4.12997303E-03  0.00000000E+00
 -7.71106519E-03 -4.41971136E-04  1.31345097E-04  7.85714311E-05  0.00000000E+00
  5.99184053E-05  7.59277484E-05 -5.99184053E-05  6.99825085E-01  3.07839639E-02
  7.15595286E-04  1.09289995E-03  0.00000000E+00 -8.11102340E-03 -7.61379228E-03
  2.95707856E-03  3.51524319E-03  0.00000000E+00  1.86289778E-04 -6.42291554E-03
  2.15862511E-04 -6.99825085E-01 -3.07839639E-02  7.15595286E-04  1.09289995E-03
  0.00000000E+00  6.42291554E-03  8.11102340E-03  7.61379228E-03  2.95707856E-03
  3.51524319E-03  0.00000000E+00 -1.86289778E-04 -2.15862511E-04  8.72461129E-03
  5.31727599E-04 -1.28750923E-04  2.14893708E-06  0.00000000E+00 -7.59277484E-05
  2.82512408E-02 -4.07060822E-03 -7.66958498E-04  4.10291186E-03  0.00000000E+00
 -1.02850963E-02 -4.22832278E-04 -2.09526130E-04 -1.74735523E-05  0.00000000E+00
 -1.15901250E-02 -5.56974926E-04 -1.88599037E-04 -6.52230901E-05  0.00000000E+00
  2.82512408E-02 -4.07060822E-03  7.66958498E-04 -4.10291186E-03  0.00000000E+00
 -1.02850963E-02 -4.22832278E-04  2.09526130E-04  1.74735523E-05  0.00000000E+00
 -6.15607531E-05  8.12363541E-05 -6.15607531E-05  6.99743254E-01  3.07654177E-02
  7.12993705E-04  1.10316862E-03  0.00000000E+00 -8.10450486E-03 -7.61217436E-03
  2.95743368E-03  3.51340196E-03  0.00000000E+00  1.86662275E-04 -6.42068322E-03
  2.16091361E-04  6.99743254E-01  3.07654177E-02 -7.12993705E-04 -1.10316862E-03
  0.00000000E+00 -6.42068322E-03 -8.10450486E-03 -7.61217436E-03 -2.95743368E-03
 -3.51340196E-03  0.00000000E+00  1.86662275E-04  2.16091361E-04 -1.15901250E-02
 -5.56974926E-04  1.88599037E-04  6.52230901E-05  0.00000000E+00  8.12363541E-05
  2.75273200E-02 -7.89448579E-03  2.03321196E-03 -2.83537785E-03  0.00000000E+00
  6.12862899E-01  3.03512126E-02  1.67896157E-04  2.87666743E-03  0.00000000E+00
 -3.37162826E-01 -2.07615140E-02 -1.18710510E-03  4.10930721E-03  0.00000000E+00
 -2.75273200E-02  7.89448579E-03  2.03321196E-03 -2.83537785E-03  0.00000000E+00
 -6.12862899E-01 -3.03512126E-02  1.67896157E-04  2.87666743E-03  0.00000000E+00
 -5.63971043E-03  3.20931373E-03  5.63971043E-03 -9.94772298E-03 -5.59006567E-04
 -5.03016849E-05 -4.38868382E-05  0.00000000E+00  9.26843675E-04  2.35523409E-04
 -2.96502036E-06 -1.23715109E-04  0.00000000E+00 -1.58962982E-04  1.41845841E-04
  1.02395316E-05  9.94772298E-03  5.59006567E-04 -5.03016849E-05 -4.38868382E-05
  0.00000000E+00 -1.41845841E-04 -9.26843675E-04 -2.35523409E-04 -2.96502036E-06
 -1.23715109E-04  0.00000000E+00  1.58962982E-04 -1.02395316E-05  3.37162826E-01
  2.07615140E-02 -1.18710510E-03  4.10930721E-03  0.00000000E+00 -3.20931373E-03
  7.08808855E-03 -1.76852921E-03  5.19040172E-03  2.74032072E-04  0.00000000E+00
  5.97698559E-01  2.97271207E-02 -5.07805235E-05  2.83857601E-03  0.00000000E+00
 -3.64360750E-01 -2.16529404E-02 -1.11558873E-03  3.91884645E-03  0.00000000E+00
  7.08808855E-03 -1.76852921E-03 -5.19040172E-03 -2.74032072E-04  0.00000000E+00
  5.97698559E-01  2.97271207E-02  5.07805235E-05 -2.83857601E-03  0.00000000E+00
 -5.51876698E-03  3.38106094E-03 -5.51876698E-03  2.47422320E-03  1.02005848E-04
  1.10710137E-04  6.23653122E-05  0.00000000E+00 -4.42986731E-04 -1.02077997E-04
 -2.22534211E-05  3.83102844E-05  0.00000000E+00  1.60483170E-04 -4.71138164E-05
 -5.55648568E-06  2.47422320E-03  1.02005848E-04 -1.10710137E-04 -6.23653122E-05
  0.00000000E+00 -4.71138164E-05 -4.42986731E-04 -1.02077997E-04  2.22534211E-05
 -3.83102844E-05  0.00000000E+00  1.60483170E-04 -5.55648568E-06 -3.64360750E-01
 -2.16529404E-02  1.11558873E-03 -3.91884645E-03  0.00000000E+00  3.38106094E-03
 -7.58124058E-03  2.29168959E-03  4.71369090E-03  1.84483415E-03  0.00000000E+00
  3.38522208E-01  9.14164527E-03  9.98943545E-04 -3.43673244E-03  0.00000000E+00
  6.13615795E-01  2.39310513E-02  3.62038228E-04  1.64094584E-03  0.00000000E+00
  7.58124058E-03 -2.29168959E-03  4.71369090E-03  1.84483415E-03  0.00000000E+00
 -3.38522208E-01 -9.14164527E-03  9.98943545E-04 -3.43673244E-03  0.00000000E+00
 -2.89683978E-03 -5.44397497E-03  2.89683978E-03  3.65548562E-03  2.08135831E-04
 -4.17638373E-06  2.64106807E-05  0.00000000E+00  8.58613924E-05 -5.00951454E-05
  4.63214733E-05  2.37308970E-05  0.00000000E+00 -6.42093007E-05 -6.38850256E-05
  8.64043535E-06 -3.65548562E-03 -2.08135831E-04 -4.17638373E-06  2.64106807E-05
  0.00000000E+00  6.38850256E-05 -8.58613924E-05  5.00951454E-05  4.63214733E-05
  2.37308970E-05  0.00000000E+00  6.42093007E-05 -8.64043535E-06 -6.13615795E-01
 -2.39310513E-02  3.62038228E-04  1.64094584E-03  0.00000000E+00  5.44397497E-03
  2.83718466E-02 -7.32031667E-03 -6.42395194E-04 -3.16014111E-03  0.00000000E+00
  3.64643101E-01  1.04284505E-02  7.48339849E-04 -3.38053825E-03  0.00000000E+00
  5.97862063E-01  2.28436266E-02 -5.85861383E-05  1.85758525E-03  0.00000000E+00
  2.83718466E-02 -7.32031667E-03  6.42395194E-04  3.16014111E-03  0.00000000E+00
  3.64643101E-01  1.04284505E-02 -7.48339849E-04  3.38053825E-03  0.00000000E+00
 -3.31789625E-03 -5.46190394E-03 -3.31789625E-03  1.42165607E-02  6.20586242E-04
  1.16582754E-06  1.73115940E-04  0.00000000E+00 -1.08279631E-03 -2.82785010E-04
  4.01760667E-05  1.67005137E-04  0.00000000E+00  7.24574622E-05 -2.20883785E-04
 -1.07942023E-05  1.42165607E-02  6.20586242E-04 -1.16582754E-06 -1.73115940E-04
  0.00000000E+00 -2.20883785E-04 -1.08279631E-03 -2.82785010E-04 -4.01760667E-05
 -1.67005137E-04  0.00000000E+00  7.24574622E-05 -1.07942023E-05  5.97862063E-01
  2.28436266E-02  5.85861383E-05 -1.85758525E-03  0.00000000E+00 -5.46190394E-03
 -1.78631673E-04 -1.58814696E-04  2.08708116E-05  4.96932809E-05  0.00000000E+00
 -7.89989445E-04  1.48319580E-05  9.04384430E-06 -1.04785419E-04  0.00000000E+00
  2.83907140E-04 -2.19141772E-06 -4.29537459E-06 -8.07256132E-05  0.00000000E+00
  1.78631673E-04  1.58814696E-04  2.08708116E-05  4.96932809E-05  0.00000000E+00
  7.89989445E-04 -1.48319580E-05  9.04384430E-06 -1.04785419E-04  0.00000000E+00