 Entering Gaussian System, Link 0=/usr/local/gaussian-2009-D.01_intel_sse4.2/g09/g09
 Initial command:
 /usr/local/gaussian-2009-D.01_intel_sse4.2/g09/l1.exe "/lustre/scratch/tmp/pbs.7683135.nova/g09--32755-HGWjPArytAt32757/Gau-32759.inp" -scrdir="/lustre/scratch/tmp/pbs.7683135.nova/g09--32755-HGWjPArytAt32757/"
 Entering Link 1 = /usr/local/gaussian-2009-D.01_intel_sse4.2/g09/l1.exe PID=     32760.
  
 Copyright (c) 1988,1990,1992,1993,1995,1998,2003,2009,2013,
            Gaussian, Inc.  All Rights Reserved.
  
 This is part of the Gaussian(R) 09 program.  It is based on
 the Gaussian(R) 03 system (copyright 2003, Gaussian, Inc.),
 the Gaussian(R) 98 system (copyright 1998, Gaussian, Inc.),
 the Gaussian(R) 94 system (copyright 1995, Gaussian, Inc.),
 the Gaussian 92(TM) system (copyright 1992, Gaussian, Inc.),
 the Gaussian 90(TM) system (copyright 1990, Gaussian, Inc.),
 the Gaussian 88(TM) system (copyright 1988, Gaussian, Inc.),
 the Gaussian 86(TM) system (copyright 1986, Carnegie Mellon
 University), and the Gaussian 82(TM) system (copyright 1983,
 Carnegie Mellon University). Gaussian is a federally registered
 trademark of Gaussian, Inc.
  
 This software contains proprietary and confidential information,
 including trade secrets, belonging to Gaussian, Inc.
  
 This software is provided under written license and may be
 used, copied, transmitted, or stored only in accord with that
 written license.
  
 The following legend is applicable only to US Government
 contracts under FAR:
  
                    RESTRICTED RIGHTS LEGEND
  
 Use, reproduction and disclosure by the US Government is
 subject to restrictions as set forth in subparagraphs (a)
 and (c) of the Commercial Computer Software - Restricted
 Rights clause in FAR 52.227-19.
  
 Gaussian, Inc.
 340 Quinnipiac St., Bldg. 40, Wallingford CT 06492
  
  
 ---------------------------------------------------------------
 Warning -- This program may not be used in any manner that
 competes with the business of Gaussian, Inc. or will provide
 assistance to any competitor of Gaussian, Inc.  The licensee
 of this program is prohibited from giving any competitor of
 Gaussian, Inc. access to this program.  By using this program,
 the user acknowledges that Gaussian, Inc. is engaged in the
 business of creating and licensing software in the field of
 computational chemistry and represents and warrants to the
 licensee that it is not a competitor of Gaussian, Inc. and that
 it will not use this program in any manner prohibited above.
 ---------------------------------------------------------------
  

 Cite this work as:
 Gaussian 09, Revision D.01,
 M. J. Frisch, G. W. Trucks, H. B. Schlegel, G. E. Scuseria, 
 M. A. Robb, J. R. Cheeseman, G. Scalmani, V. Barone, B. Mennucci, 
 G. A. Petersson, H. Nakatsuji, M. Caricato, X. Li, H. P. Hratchian, 
 A. F. Izmaylov, J. Bloino, G. Zheng, J. L. Sonnenberg, M. Hada, 
 M. Ehara, K. Toyota, R. Fukuda, J. Hasegawa, M. Ishida, T. Nakajima, 
 Y. Honda, O. Kitao, H. Nakai, T. Vreven, J. A. Montgomery, Jr., 
 J. E. Peralta, F. Ogliaro, M. Bearpark, J. J. Heyd, E. Brothers, 
 K. N. Kudin, V. N. Staroverov, T. Keith, R. Kobayashi, J. Normand, 
 K. Raghavachari, A. Rendell, J. C. Burant, S. S. Iyengar, J. Tomasi, 
 M. Cossi, N. Rega, J. M. Millam, M. Klene, J. E. Knox, J. B. Cross, 
 V. Bakken, C. Adamo, J. Jaramillo, R. Gomperts, R. E. Stratmann, 
 O. Yazyev, A. J. Austin, R. Cammi, C. Pomelli, J. W. Ochterski, 
 R. L. Martin, K. Morokuma, V. G. Zakrzewski, G. A. Voth, 
 P. Salvador, J. J. Dannenberg, S. Dapprich, A. D. Daniels, 
 O. Farkas, J. B. Foresman, J. V. Ortiz, J. Cioslowski, 
 and D. J. Fox, Gaussian, Inc., Wallingford CT, 2013.
 
 ******************************************
 Gaussian 09:  ES64L-G09RevD.01 24-Apr-2013
                 1-Sep-2014 
 ******************************************
 %nproc=1
 Will use up to    1 processors via shared memory.
 %mem=1000MB
 %chk=PhCCCC.chk
 --------------------------------
 #p b3lyp/sto-3g opt=modredundant
 --------------------------------
 1/14=-1,18=120,19=15,26=3,38=1/1,3;
 2/9=110,12=2,17=6,18=5,40=1/2;
 3/6=3,11=2,16=1,25=1,30=1,71=1,74=-5/1,2,3;
 4//1;
 5/5=2,38=5/2;
 6/7=2,8=2,9=2,10=2,28=1/1;
 7//1,2,3,16;
 1/14=-1,18=20,19=15,26=3/3(2);
 2/9=110/2;
 99//99;
 2/9=110/2;
 3/6=3,11=2,16=1,25=1,30=1,71=1,74=-5/1,2,3;
 4/5=5,16=3,69=1/1;
 5/5=2,38=5/2;
 7//1,2,3,16;
 1/14=-1,18=20,19=15,26=3/3(-5);
 2/9=110/2;
 6/7=2,8=2,9=2,10=2,19=2,28=1/1;
 99/9=1/99;
 Leave Link    1 at Mon Sep  1 17:06:24 2014, MaxMem=   131072000 cpu:         0.0
 (Enter /usr/local/gaussian-2009-D.01_intel_sse4.2/g09/l101.exe)
 -----------------
 DVB scan dihedral
 -----------------
 Symbolic Z-matrix:
 Charge =  0 Multiplicity = 1
 C                     0.26948  -1.41009   0. 
 C                    -1.06475  -0.9207    0. 
 C                    -1.32543   0.45703   0. 
 C                    -0.26948   1.41009   0. 
 C                     1.06475   0.9207    0. 
 H                    -1.90444  -1.6276    0. 
 H                    -2.36477   0.81317   0. 
 H                     1.90444   1.6276    0. 
 C                    -0.60373   2.86992   0. 
 C                     0.26948   3.89195   0. 
 H                     1.35517   3.74201   0. 
 H                    -1.6819    3.09      0. 
 H                    -0.07403   4.93297   0. 
 C                     0.60373  -2.86992   0. 
 H                     1.6819   -3.09      0. 
 C                    -0.26948  -3.89195   0. 
 H                    -1.35517  -3.74201   0. 
 H                     0.07403  -4.93297   0. 
 C                     1.32543  -0.45703   0. 
 H                     2.36477  -0.81317   0. 
 
 The following ModRedundant input section has been read:
 D       3       4       9      10 S  12 30.000                                
 
 NAtoms=     20 NQM=       20 NQMF=       0 NMMI=      0 NMMIF=      0
                NMic=       0 NMicF=      0.
                    Isotopes and Nuclear Properties:
 (Nuclear quadrupole moments (NQMom) in fm**2, nuclear magnetic moments (NMagM)
  in nuclear magnetons)

  Atom         1           2           3           4           5           6           7           8           9          10
 IAtWgt=          12          12          12          12          12           1           1           1          12          12
 AtmWgt=  12.0000000  12.0000000  12.0000000  12.0000000  12.0000000   1.0078250   1.0078250   1.0078250  12.0000000  12.0000000
 NucSpn=           0           0           0           0           0           1           1           1           0           0
 AtZEff=   0.0000000   0.0000000   0.0000000   0.0000000   0.0000000   0.0000000   0.0000000   0.0000000   0.0000000   0.0000000
 NQMom=    0.0000000   0.0000000   0.0000000   0.0000000   0.0000000   0.0000000   0.0000000   0.0000000   0.0000000   0.0000000
 NMagM=    0.0000000   0.0000000   0.0000000   0.0000000   0.0000000   2.7928460   2.7928460   2.7928460   0.0000000   0.0000000
 AtZNuc=   6.0000000   6.0000000   6.0000000   6.0000000   6.0000000   1.0000000   1.0000000   1.0000000   6.0000000   6.0000000

  Atom        11          12          13          14          15          16          17          18          19          20
 IAtWgt=           1           1           1          12           1          12           1           1          12           1
 AtmWgt=   1.0078250   1.0078250   1.0078250  12.0000000   1.0078250  12.0000000   1.0078250   1.0078250  12.0000000   1.0078250
 NucSpn=           1           1           1           0           1           0           1           1           0           1
 AtZEff=   0.0000000   0.0000000   0.0000000   0.0000000   0.0000000   0.0000000   0.0000000   0.0000000   0.0000000   0.0000000
 NQMom=    0.0000000   0.0000000   0.0000000   0.0000000   0.0000000   0.0000000   0.0000000   0.0000000   0.0000000   0.0000000
 NMagM=    2.7928460   2.7928460   2.7928460   0.0000000   2.7928460   0.0000000   2.7928460   2.7928460   0.0000000   2.7928460
 AtZNuc=   1.0000000   1.0000000   1.0000000   6.0000000   1.0000000   6.0000000   1.0000000   1.0000000   6.0000000   1.0000000
 Leave Link  101 at Mon Sep  1 17:06:24 2014, MaxMem=   131072000 cpu:         0.1
 (Enter /usr/local/gaussian-2009-D.01_intel_sse4.2/g09/l103.exe)

 GradGradGradGradGradGradGradGradGradGradGradGradGradGradGradGradGradGrad
 Berny optimization.
 Initialization pass.
                           ----------------------------
                           !    Initial Parameters    !
                           ! (Angstroms and Degrees)  !
 --------------------------                            --------------------------
 ! Name  Definition              Value          Derivative Info.                !
 --------------------------------------------------------------------------------
 ! R1    R(1,2)                  1.4212         estimate D2E/DX2                !
 ! R2    R(1,14)                 1.4976         estimate D2E/DX2                !
 ! R3    R(1,19)                 1.4224         estimate D2E/DX2                !
 ! R4    R(2,3)                  1.4022         estimate D2E/DX2                !
 ! R5    R(2,6)                  1.0976         estimate D2E/DX2                !
 ! R6    R(3,4)                  1.4224         estimate D2E/DX2                !
 ! R7    R(3,7)                  1.0987         estimate D2E/DX2                !
 ! R8    R(4,5)                  1.4212         estimate D2E/DX2                !
 ! R9    R(4,9)                  1.4976         estimate D2E/DX2                !
 ! R10   R(5,8)                  1.0976         estimate D2E/DX2                !
 ! R11   R(5,19)                 1.4022         estimate D2E/DX2                !
 ! R12   R(9,10)                 1.3443         estimate D2E/DX2                !
 ! R13   R(9,12)                 1.1004         estimate D2E/DX2                !
 ! R14   R(10,11)                1.096          estimate D2E/DX2                !
 ! R15   R(10,13)                1.0962         estimate D2E/DX2                !
 ! R16   R(14,15)                1.1004         estimate D2E/DX2                !
 ! R17   R(14,16)                1.3443         estimate D2E/DX2                !
 ! R18   R(16,17)                1.096          estimate D2E/DX2                !
 ! R19   R(16,18)                1.0962         estimate D2E/DX2                !
 ! R20   R(19,20)                1.0987         estimate D2E/DX2                !
 ! A1    A(2,1,14)             123.0393         estimate D2E/DX2                !
 ! A2    A(2,1,19)             117.789          estimate D2E/DX2                !
 ! A3    A(14,1,19)            119.1718         estimate D2E/DX2                !
 ! A4    A(1,2,3)              120.8571         estimate D2E/DX2                !
 ! A5    A(1,2,6)              119.7645         estimate D2E/DX2                !
 ! A6    A(3,2,6)              119.3784         estimate D2E/DX2                !
 ! A7    A(2,3,4)              121.3539         estimate D2E/DX2                !
 ! A8    A(2,3,7)              119.6288         estimate D2E/DX2                !
 ! A9    A(4,3,7)              119.0173         estimate D2E/DX2                !
 ! A10   A(3,4,5)              117.789          estimate D2E/DX2                !
 ! A11   A(3,4,9)              119.1718         estimate D2E/DX2                !
 ! A12   A(5,4,9)              123.0393         estimate D2E/DX2                !
 ! A13   A(4,5,8)              119.7645         estimate D2E/DX2                !
 ! A14   A(4,5,19)             120.8571         estimate D2E/DX2                !
 ! A15   A(8,5,19)             119.3784         estimate D2E/DX2                !
 ! A16   A(4,9,10)             126.5934         estimate D2E/DX2                !
 ! A17   A(4,9,12)             114.4334         estimate D2E/DX2                !
 ! A18   A(10,9,12)            118.9732         estimate D2E/DX2                !
 ! A19   A(9,10,11)            122.647          estimate D2E/DX2                !
 ! A20   A(9,10,13)            121.2283         estimate D2E/DX2                !
 ! A21   A(11,10,13)           116.1247         estimate D2E/DX2                !
 ! A22   A(1,14,15)            114.4334         estimate D2E/DX2                !
 ! A23   A(1,14,16)            126.5934         estimate D2E/DX2                !
 ! A24   A(15,14,16)           118.9732         estimate D2E/DX2                !
 ! A25   A(14,16,17)           122.647          estimate D2E/DX2                !
 ! A26   A(14,16,18)           121.2283         estimate D2E/DX2                !
 ! A27   A(17,16,18)           116.1247         estimate D2E/DX2                !
 ! A28   A(1,19,5)             121.3539         estimate D2E/DX2                !
 ! A29   A(1,19,20)            119.0173         estimate D2E/DX2                !
 ! A30   A(5,19,20)            119.6288         estimate D2E/DX2                !
 ! D1    D(14,1,2,3)           180.0            estimate D2E/DX2                !
 ! D2    D(14,1,2,6)             0.0            estimate D2E/DX2                !
 ! D3    D(19,1,2,3)             0.0            estimate D2E/DX2                !
 ! D4    D(19,1,2,6)           180.0            estimate D2E/DX2                !
 ! D5    D(2,1,14,15)          180.0            estimate D2E/DX2                !
 ! D6    D(2,1,14,16)            0.0            estimate D2E/DX2                !
 ! D7    D(19,1,14,15)           0.0            estimate D2E/DX2                !
 ! D8    D(19,1,14,16)         180.0            estimate D2E/DX2                !
 ! D9    D(2,1,19,5)             0.0            estimate D2E/DX2                !
 ! D10   D(2,1,19,20)          180.0            estimate D2E/DX2                !
 ! D11   D(14,1,19,5)          180.0            estimate D2E/DX2                !
 ! D12   D(14,1,19,20)           0.0            estimate D2E/DX2                !
 ! D13   D(1,2,3,4)              0.0            estimate D2E/DX2                !
 ! D14   D(1,2,3,7)            180.0            estimate D2E/DX2                !
 ! D15   D(6,2,3,4)            180.0            estimate D2E/DX2                !
 ! D16   D(6,2,3,7)              0.0            estimate D2E/DX2                !
 ! D17   D(2,3,4,5)              0.0            estimate D2E/DX2                !
 ! D18   D(2,3,4,9)            180.0            estimate D2E/DX2                !
 ! D19   D(7,3,4,5)            180.0            estimate D2E/DX2                !
 ! D20   D(7,3,4,9)              0.0            estimate D2E/DX2                !
 ! D21   D(3,4,5,8)            180.0            estimate D2E/DX2                !
 ! D22   D(3,4,5,19)             0.0            estimate D2E/DX2                !
 ! D23   D(9,4,5,8)              0.0            estimate D2E/DX2                !
 ! D24   D(9,4,5,19)           180.0            estimate D2E/DX2                !
 ! D25   D(3,4,9,10)           180.0            Scan                            !
 ! D26   D(3,4,9,12)             0.0            estimate D2E/DX2                !
 ! D27   D(5,4,9,10)             0.0            estimate D2E/DX2                !
 ! D28   D(5,4,9,12)           180.0            estimate D2E/DX2                !
 ! D29   D(4,5,19,1)             0.0            estimate D2E/DX2                !
 ! D30   D(4,5,19,20)          180.0            estimate D2E/DX2                !
 ! D31   D(8,5,19,1)           180.0            estimate D2E/DX2                !
 ! D32   D(8,5,19,20)            0.0            estimate D2E/DX2                !
 ! D33   D(4,9,10,11)            0.0            estimate D2E/DX2                !
 ! D34   D(4,9,10,13)          180.0            estimate D2E/DX2                !
 ! D35   D(12,9,10,11)         180.0            estimate D2E/DX2                !
 ! D36   D(12,9,10,13)           0.0            estimate D2E/DX2                !
 ! D37   D(1,14,16,17)           0.0            estimate D2E/DX2                !
 ! D38   D(1,14,16,18)         180.0            estimate D2E/DX2                !
 ! D39   D(15,14,16,17)        180.0            estimate D2E/DX2                !
 ! D40   D(15,14,16,18)          0.0            estimate D2E/DX2                !
 --------------------------------------------------------------------------------
 Trust Radius=3.00D-01 FncErr=1.00D-07 GrdErr=1.00D-06
 Number of optimizations in scan=  13
 Number of steps in this run=    100 maximum allowed number of steps=    120.
 GradGradGradGradGradGradGradGradGradGradGradGradGradGradGradGradGradGrad

 Leave Link  103 at Mon Sep  1 17:06:24 2014, MaxMem=   131072000 cpu:         0.0
 (Enter /usr/local/gaussian-2009-D.01_intel_sse4.2/g09/l202.exe)
                          Input orientation:                          
 ---------------------------------------------------------------------
 Center     Atomic      Atomic             Coordinates (Angstroms)
 Number     Number       Type             X           Y           Z
 ---------------------------------------------------------------------
      1          6           0        0.269480   -1.410090    0.000000
      2          6           0       -1.064750   -0.920700    0.000000
      3          6           0       -1.325430    0.457030    0.000000
      4          6           0       -0.269480    1.410090    0.000000
      5          6           0        1.064750    0.920700    0.000000
      6          1           0       -1.904440   -1.627600    0.000000
      7          1           0       -2.364770    0.813170    0.000000
      8          1           0        1.904440    1.627600    0.000000
      9          6           0       -0.603730    2.869920    0.000000
     10          6           0        0.269480    3.891950    0.000000
     11          1           0        1.355170    3.742010    0.000000
     12          1           0       -1.681900    3.090000    0.000000
     13          1           0       -0.074030    4.932970    0.000000
     14          6           0        0.603730   -2.869920    0.000000
     15          1           0        1.681900   -3.090000    0.000000
     16          6           0       -0.269480   -3.891950    0.000000
     17          1           0       -1.355170   -3.742010    0.000000
     18          1           0        0.074030   -4.932970    0.000000
     19          6           0        1.325430   -0.457030    0.000000
     20          1           0        2.364770   -0.813170    0.000000
 ---------------------------------------------------------------------
                    Distance matrix (angstroms):
                    1          2          3          4          5
     1  C    0.000000
     2  C    1.421152   0.000000
     3  C    2.455580   1.402175   0.000000
     4  C    2.871218   2.462729   1.422446   0.000000
     5  C    2.462729   2.815231   2.434738   1.421152   0.000000
     6  H    2.184774   1.097628   2.163547   3.449733   3.912790
     7  H    3.447051   2.167108   1.098664   2.178659   3.431205
     8  H    3.449733   3.912790   3.435447   2.184774   1.097628
     9  C    4.368178   3.818552   2.518509   1.497607   2.565791
    10  C    5.302040   4.994174   3.787138   2.539706   3.075838
    11  H    5.265250   5.253273   4.239895   2.842066   2.836218
    12  H    4.904966   4.057904   2.656991   2.194773   3.499993
    13  H    6.352355   5.936917   4.647584   3.528298   4.170747
    14  C    1.497607   2.565791   3.845810   4.368178   3.818552
    15  H    2.194773   3.499993   4.650318   4.904966   4.057904
    16  C    2.539706   3.075838   4.475339   5.302040   4.994174
    17  H    2.842066   2.836218   4.199145   5.265250   5.253273
    18  H    3.528298   4.170747   5.568715   6.352355   5.936917
    19  C    1.422446   2.434738   2.804026   2.455580   1.402175
    20  H    2.178659   3.431205   3.902689   3.447051   2.167108
                    6          7          8          9         10
     6  H    0.000000
     7  H    2.483800   0.000000
     8  H    5.010379   4.346200   0.000000
     9  C    4.681830   2.707671   2.798978   0.000000
    10  C    5.932231   4.051933   2.792915   1.344262   0.000000
    11  H    6.281542   4.734560   2.184589   2.144255   1.095995
    12  H    4.722846   2.377029   3.873041   1.100403   2.109741
    13  H    6.811129   4.713835   3.852248   2.129967   1.096231
    14  C    2.798978   4.730449   4.681830   5.865469   6.770126
    15  H    3.873041   5.622301   4.722846   6.383162   7.123381
    16  C    2.792915   5.150572   5.932231   6.770126   7.802537
    17  H    2.184589   4.665721   6.281542   6.654493   7.804924
    18  H    3.852248   6.242265   6.811129   7.832270   8.827084
    19  C    3.435447   3.902689   2.163547   3.845810   4.475339
    20  H    4.346200   5.001353   2.483800   4.730449   5.150572
                   11         12         13         14         15
    11  H    0.000000
    12  H    3.106270   0.000000
    13  H    1.860376   2.445769   0.000000
    14  C    6.654493   6.383162   7.832270   0.000000
    15  H    6.839818   7.036160   8.212876   1.100403   0.000000
    16  C    7.804924   7.123381   8.827084   1.344262   2.109741
    17  H    7.959680   6.839818   8.769071   2.144255   3.106270
    18  H    8.769071   8.212876   9.867051   2.129967   2.445769
    19  C    4.199145   4.650318   5.568715   2.518509   2.656991
    20  H    4.665721   5.622301   6.242265   2.707671   2.377029
                   16         17         18         19         20
    16  C    0.000000
    17  H    1.095995   0.000000
    18  H    1.096231   1.860376   0.000000
    19  C    3.787138   4.239895   4.647584   0.000000
    20  H    4.051933   4.734560   4.713835   1.098664   0.000000
 Stoichiometry    C10H10
 Framework group  C2H[SGH(C10H10)]
 Deg. of freedom    19
 Full point group                 C2H     NOp   4
 Largest Abelian subgroup         C2H     NOp   4
 Largest concise Abelian subgroup C2      NOp   2
                         Standard orientation:                         
 ---------------------------------------------------------------------
 Center     Atomic      Atomic             Coordinates (Angstroms)
 Number     Number       Type             X           Y           Z
 ---------------------------------------------------------------------
      1          6           0        0.269480   -1.410090    0.000000
      2          6           0       -1.064750   -0.920700    0.000000
      3          6           0       -1.325430    0.457030    0.000000
      4          6           0       -0.269480    1.410090    0.000000
      5          6           0        1.064750    0.920700    0.000000
      6          1           0       -1.904440   -1.627600    0.000000
      7          1           0       -2.364770    0.813170    0.000000
      8          1           0        1.904440    1.627600    0.000000
      9          6           0       -0.603730    2.869920    0.000000
     10          6           0        0.269480    3.891950    0.000000
     11          1           0        1.355170    3.742010    0.000000
     12          1           0       -1.681900    3.090000    0.000000
     13          1           0       -0.074030    4.932970    0.000000
     14          6           0        0.603730   -2.869920    0.000000
     15          1           0        1.681900   -3.090000    0.000000
     16          6           0       -0.269480   -3.891950    0.000000
     17          1           0       -1.355170   -3.742010    0.000000
     18          1           0        0.074030   -4.932970    0.000000
     19          6           0        1.325430   -0.457030    0.000000
     20          1           0        2.364770   -0.813170    0.000000
 ---------------------------------------------------------------------
 Rotational constants (GHZ):      4.6265078      0.6849394      0.5966128
 Leave Link  202 at Mon Sep  1 17:06:24 2014, MaxMem=   131072000 cpu:         0.0
 (Enter /usr/local/gaussian-2009-D.01_intel_sse4.2/g09/l301.exe)
 Standard basis: STO-3G (5D, 7F)
 Ernie: Thresh=  0.10000D-02 Tol=  0.10000D-05 Strict=F.
 There are    25 symmetry adapted cartesian basis functions of AG  symmetry.
 There are     5 symmetry adapted cartesian basis functions of BG  symmetry.
 There are     5 symmetry adapted cartesian basis functions of AU  symmetry.
 There are    25 symmetry adapted cartesian basis functions of BU  symmetry.
 There are    25 symmetry adapted basis functions of AG  symmetry.
 There are     5 symmetry adapted basis functions of BG  symmetry.
 There are     5 symmetry adapted basis functions of AU  symmetry.
 There are    25 symmetry adapted basis functions of BU  symmetry.
    60 basis functions,   180 primitive gaussians,    60 cartesian basis functions
    35 alpha electrons       35 beta electrons
       nuclear repulsion energy       445.8994788941 Hartrees.
 IExCor=  402 DFT=T Ex+Corr=B3LYP ExCW=0 ScaHFX=  0.200000
 ScaDFX=  0.800000  0.720000  1.000000  0.810000 ScalE2=  1.000000  1.000000
 IRadAn=      0 IRanWt=     -1 IRanGd=            0 ICorTp=0 IEmpDi=  4
 NAtoms=   20 NActive=   20 NUniq=   10 SFac= 4.00D+00 NAtFMM=   60 NAOKFM=F Big=F
 Integral buffers will be    131072 words long.
 Raffenetti 2 integral format.
 Two-electron integral symmetry is turned on.
 Leave Link  301 at Mon Sep  1 17:06:24 2014, MaxMem=   131072000 cpu:         0.0
 (Enter /usr/local/gaussian-2009-D.01_intel_sse4.2/g09/l302.exe)
 NPDir=0 NMtPBC=     1 NCelOv=     1 NCel=       1 NClECP=     1 NCelD=      1
         NCelK=      1 NCelE2=     1 NClLst=     1 CellRange=     0.0.
 One-electron integrals computed using PRISM.
 One-electron integral symmetry used in STVInt
 NBasis=    60 RedAO= T EigKep=  1.81D-01  NBF=    25     5     5    25
 NBsUse=    60 1.00D-06 EigRej= -1.00D+00 NBFU=    25     5     5    25
 Precomputing XC quadrature grid using
 IXCGrd= 4 IRadAn=           0 IRanWt=          -1 IRanGd=           0 AccXCQ= 0.00D+00.
 Generated NRdTot=       0 NPtTot=           0 NUsed=           0 NTot=          32
 NSgBfM=    59    59    59    59    59 MxSgAt=    20 MxSgA2=    20.
 Leave Link  302 at Mon Sep  1 17:06:24 2014, MaxMem=   131072000 cpu:         0.3
 (Enter /usr/local/gaussian-2009-D.01_intel_sse4.2/g09/l303.exe)
 DipDrv:  MaxL=1.
 Leave Link  303 at Mon Sep  1 17:06:24 2014, MaxMem=   131072000 cpu:         0.0
 (Enter /usr/local/gaussian-2009-D.01_intel_sse4.2/g09/l401.exe)
 ExpMin= 1.69D-01 ExpMax= 7.16D+01 ExpMxC= 7.16D+01 IAcc=1 IRadAn=         1 AccDes= 0.00D+00
 Harris functional with IExCor=  402 and IRadAn=       1 diagonalized for initial guess.
 HarFok:  IExCor=  402 AccDes= 0.00D+00 IRadAn=         1 IDoV= 1 UseB2=F ITyADJ=14
 ICtDFT=  3500011 ScaDFX=  1.000000  1.000000  1.000000  1.000000
 FoFCou: FMM=F IPFlag=           0 FMFlag=      100000 FMFlg1=           0
         NFxFlg=           0 DoJE=T BraDBF=F KetDBF=T FulRan=T
         wScrn=  0.000000 ICntrl=     500 IOpCl=  0 I1Cent=   200000004 NGrid=           0
         NMat0=    1 NMatS0=      1 NMatT0=    0 NMatD0=    1 NMtDS0=    0 NMtDT0=    0
 Petite list used in FoFCou.
 Harris En= -382.206445711122    
 JPrj=0 DoOrth=F DoCkMO=F.
 Initial guess orbital symmetries:
       Occupied  (BU) (AG) (BU) (AG) (BU) (AG) (BU) (AG) (BU) (AG)
                 (AG) (BU) (AG) (BU) (BU) (AG) (AG) (BU) (AG) (AG)
                 (BU) (BU) (AG) (BU) (BU) (BU) (AG) (AU) (BU) (AG)
                 (AG) (BG) (AU) (BG) (BG)
       Virtual   (AU) (AU) (BG) (AU) (BG) (AG) (BU) (BU) (AG) (AG)
                 (BU) (BU) (AG) (BU) (AG) (AG) (BU) (AG) (BU) (BU)
                 (AG) (AG) (BU) (AG) (BU)
 The electronic state of the initial guess is 1-AG.
 Leave Link  401 at Mon Sep  1 17:06:25 2014, MaxMem=   131072000 cpu:         0.2
 (Enter /usr/local/gaussian-2009-D.01_intel_sse4.2/g09/l502.exe)
 Closed shell SCF:
 Using DIIS extrapolation, IDIIS=  1040.
 Integral symmetry usage will be decided dynamically.
 Keep R1 ints in memory in symmetry-blocked form, NReq=2592849.
 IVT=       30362 IEndB=       30362 NGot=   131072000 MDV=   130530974
 LenX=   130530974 LenY=   130526933
 Requested convergence on RMS density matrix=1.00D-08 within 128 cycles.
 Requested convergence on MAX density matrix=1.00D-06.
 Requested convergence on             energy=1.00D-06.
 No special actions if energy rises.
 FoFCou: FMM=F IPFlag=           0 FMFlag=           0 FMFlg1=           0
         NFxFlg=           0 DoJE=F BraDBF=F KetDBF=F FulRan=T
         wScrn=  0.000000 ICntrl=     600 IOpCl=  0 I1Cent=           0 NGrid=           0
         NMat0=    1 NMatS0=   1830 NMatT0=    0 NMatD0=    1 NMtDS0=    0 NMtDT0=    0
 Petite list used in FoFCou.
 Integral accuracy reduced to 1.0D-05 until final iterations.

 Cycle   1  Pass 0  IDiag  1:
 E= -382.254797122998    
 DIIS: error= 1.76D-02 at cycle   1 NSaved=   1.
 NSaved= 1 IEnMin= 1 EnMin= -382.254797122998     IErMin= 1 ErrMin= 1.76D-02
 ErrMax= 1.76D-02  0.00D+00 EMaxC= 1.00D-01 BMatC= 3.88D-02 BMatP= 3.88D-02
 IDIUse=3 WtCom= 8.24D-01 WtEn= 1.76D-01
 Coeff-Com:  0.100D+01
 Coeff-En:   0.100D+01
 Coeff:      0.100D+01
 Gap=     0.191 Goal=   None    Shift=    0.000
 GapD=    0.191 DampG=1.000 DampE=0.500 DampFc=0.5000 IDamp=-1.
 Damping current iteration by 5.00D-01
 RMSDP=7.78D-03 MaxDP=9.46D-02              OVMax= 3.59D-02

 Cycle   2  Pass 0  IDiag  1:
 E= -382.283509121292     Delta-E=       -0.028711998294 Rises=F Damp=T
 DIIS: error= 5.40D-03 at cycle   2 NSaved=   2.
 NSaved= 2 IEnMin= 2 EnMin= -382.283509121292     IErMin= 2 ErrMin= 5.40D-03
 ErrMax= 5.40D-03  0.00D+00 EMaxC= 1.00D-01 BMatC= 3.08D-03 BMatP= 3.88D-02
 IDIUse=3 WtCom= 9.46D-01 WtEn= 5.40D-02
 Coeff-Com: -0.208D+00 0.121D+01
 Coeff-En:   0.000D+00 0.100D+01
 Coeff:     -0.197D+00 0.120D+01
 Gap=     0.191 Goal=   None    Shift=    0.000
 RMSDP=2.10D-03 MaxDP=3.89D-02 DE=-2.87D-02 OVMax= 5.09D-02

 Cycle   3  Pass 0  IDiag  1:
 E= -382.303664661217     Delta-E=       -0.020155539925 Rises=F Damp=F
 DIIS: error= 8.90D-03 at cycle   3 NSaved=   3.
 NSaved= 3 IEnMin= 3 EnMin= -382.303664661217     IErMin= 2 ErrMin= 5.40D-03
 ErrMax= 8.90D-03  0.00D+00 EMaxC= 1.00D-01 BMatC= 3.57D-03 BMatP= 3.08D-03
 IDIUse=3 WtCom= 9.59D-02 WtEn= 9.04D-01
 Coeff-Com: -0.172D+00 0.737D+00 0.435D+00
 Coeff-En:   0.000D+00 0.000D+00 0.100D+01
 Coeff:     -0.165D-01 0.707D-01 0.946D+00
 Gap=     0.190 Goal=   None    Shift=    0.000
 RMSDP=3.26D-03 MaxDP=7.99D-02 DE=-2.02D-02 OVMax= 6.31D-02

 Cycle   4  Pass 0  IDiag  1:
 E= -382.294755719952     Delta-E=        0.008908941265 Rises=F Damp=F
 DIIS: error= 1.57D-02 at cycle   4 NSaved=   4.
 NSaved= 4 IEnMin= 3 EnMin= -382.303664661217     IErMin= 2 ErrMin= 5.40D-03
 ErrMax= 1.57D-02  0.00D+00 EMaxC= 1.00D-01 BMatC= 1.06D-02 BMatP= 3.08D-03
 IDIUse=2 WtCom= 0.00D+00 WtEn= 1.00D+00
 Coeff-En:   0.000D+00 0.000D+00 0.702D+00 0.298D+00
 Coeff:      0.000D+00 0.000D+00 0.702D+00 0.298D+00
 Gap=     0.190 Goal=   None    Shift=    0.000
 RMSDP=1.64D-03 MaxDP=4.05D-02 DE= 8.91D-03 OVMax= 3.09D-02

 Cycle   5  Pass 0  IDiag  1:
 E= -382.307673411415     Delta-E=       -0.012917691463 Rises=F Damp=F
 DIIS: error= 3.17D-03 at cycle   5 NSaved=   5.
 NSaved= 5 IEnMin= 5 EnMin= -382.307673411415     IErMin= 5 ErrMin= 3.17D-03
 ErrMax= 3.17D-03  0.00D+00 EMaxC= 1.00D-01 BMatC= 4.51D-04 BMatP= 3.08D-03
 IDIUse=3 WtCom= 9.68D-01 WtEn= 3.17D-02
 Coeff-Com:  0.893D-02-0.190D-01 0.331D+00 0.744D-01 0.605D+00
 Coeff-En:   0.000D+00 0.000D+00 0.132D+00 0.000D+00 0.868D+00
 Coeff:      0.865D-02-0.184D-01 0.324D+00 0.720D-01 0.614D+00
 Gap=     0.190 Goal=   None    Shift=    0.000
 RMSDP=4.37D-04 MaxDP=1.03D-02 DE=-1.29D-02 OVMax= 7.83D-03

 Cycle   6  Pass 0  IDiag  1:
 E= -382.308246917815     Delta-E=       -0.000573506400 Rises=F Damp=F
 DIIS: error= 9.61D-05 at cycle   6 NSaved=   6.
 NSaved= 6 IEnMin= 6 EnMin= -382.308246917815     IErMin= 6 ErrMin= 9.61D-05
 ErrMax= 9.61D-05  0.00D+00 EMaxC= 1.00D-01 BMatC= 3.67D-07 BMatP= 4.51D-04
 IDIUse=1 WtCom= 1.00D+00 WtEn= 0.00D+00
 Coeff-Com:  0.195D-02-0.450D-02 0.784D-01 0.146D-01 0.177D+00 0.732D+00
 Coeff:      0.195D-02-0.450D-02 0.784D-01 0.146D-01 0.177D+00 0.732D+00
 Gap=     0.190 Goal=   None    Shift=    0.000
 RMSDP=1.26D-05 MaxDP=2.34D-04 DE=-5.74D-04 OVMax= 1.66D-04

 Cycle   7  Pass 0  IDiag  1:
 E= -382.308247357022     Delta-E=       -0.000000439207 Rises=F Damp=F
 DIIS: error= 1.02D-05 at cycle   7 NSaved=   7.
 NSaved= 7 IEnMin= 7 EnMin= -382.308247357022     IErMin= 7 ErrMin= 1.02D-05
 ErrMax= 1.02D-05  0.00D+00 EMaxC= 1.00D-01 BMatC= 7.07D-09 BMatP= 3.67D-07
 IDIUse=1 WtCom= 1.00D+00 WtEn= 0.00D+00
 Coeff-Com: -0.112D-03 0.121D-03-0.183D-02-0.154D-02 0.998D-02 0.299D+00
 Coeff-Com:  0.694D+00
 Coeff:     -0.112D-03 0.121D-03-0.183D-02-0.154D-02 0.998D-02 0.299D+00
 Coeff:      0.694D+00
 Gap=     0.191 Goal=   None    Shift=    0.000
 RMSDP=2.26D-06 MaxDP=2.24D-05 DE=-4.39D-07 OVMax= 1.46D-05

 Initial convergence to 1.0D-05 achieved.  Increase integral accuracy.
 Cycle   8  Pass 1  IDiag  1:
 E= -382.308266577014     Delta-E=       -0.000019219992 Rises=F Damp=F
 DIIS: error= 4.67D-06 at cycle   1 NSaved=   1.
 NSaved= 1 IEnMin= 1 EnMin= -382.308266577014     IErMin= 1 ErrMin= 4.67D-06
 ErrMax= 4.67D-06  0.00D+00 EMaxC= 1.00D-01 BMatC= 8.86D-10 BMatP= 8.86D-10
 IDIUse=1 WtCom= 1.00D+00 WtEn= 0.00D+00
 Coeff-Com:  0.100D+01
 Coeff:      0.100D+01
 Gap=     0.191 Goal=   None    Shift=    0.000
 RMSDP=2.26D-06 MaxDP=2.24D-05 DE=-1.92D-05 OVMax= 2.77D-07

 Cycle   9  Pass 1  IDiag  1:
 E= -382.308266578136     Delta-E=       -0.000000001122 Rises=F Damp=F
 DIIS: error= 2.52D-06 at cycle   2 NSaved=   2.
 NSaved= 2 IEnMin= 2 EnMin= -382.308266578136     IErMin= 2 ErrMin= 2.52D-06
 ErrMax= 2.52D-06  0.00D+00 EMaxC= 1.00D-01 BMatC= 3.28D-10 BMatP= 8.86D-10
 IDIUse=1 WtCom= 1.00D+00 WtEn= 0.00D+00
 Coeff-Com:  0.338D+00 0.662D+00
 Coeff:      0.338D+00 0.662D+00
 Gap=     0.191 Goal=   None    Shift=    0.000
 RMSDP=5.90D-07 MaxDP=9.09D-06 DE=-1.12D-09 OVMax= 7.38D-06

 Cycle  10  Pass 1  IDiag  1:
 E= -382.308266578387     Delta-E=       -0.000000000251 Rises=F Damp=F
 DIIS: error= 1.30D-06 at cycle   3 NSaved=   3.
 NSaved= 3 IEnMin= 3 EnMin= -382.308266578387     IErMin= 3 ErrMin= 1.30D-06
 ErrMax= 1.30D-06  0.00D+00 EMaxC= 1.00D-01 BMatC= 1.31D-10 BMatP= 3.28D-10
 IDIUse=1 WtCom= 1.00D+00 WtEn= 0.00D+00
 Coeff-Com:  0.206D-02 0.385D+00 0.613D+00
 Coeff:      0.206D-02 0.385D+00 0.613D+00
 Gap=     0.191 Goal=   None    Shift=    0.000
 RMSDP=2.56D-07 MaxDP=5.40D-06 DE=-2.51D-10 OVMax= 4.25D-06

 Cycle  11  Pass 1  IDiag  1:
 E= -382.308266578537     Delta-E=       -0.000000000149 Rises=F Damp=F
 DIIS: error= 4.60D-07 at cycle   4 NSaved=   4.
 NSaved= 4 IEnMin= 4 EnMin= -382.308266578537     IErMin= 4 ErrMin= 4.60D-07
 ErrMax= 4.60D-07  0.00D+00 EMaxC= 1.00D-01 BMatC= 9.10D-12 BMatP= 1.31D-10
 IDIUse=1 WtCom= 1.00D+00 WtEn= 0.00D+00
 Coeff-Com: -0.117D-01 0.210D+00 0.367D+00 0.435D+00
 Coeff:     -0.117D-01 0.210D+00 0.367D+00 0.435D+00
 Gap=     0.191 Goal=   None    Shift=    0.000
 RMSDP=7.10D-08 MaxDP=1.59D-06 DE=-1.49D-10 OVMax= 1.43D-06

 Cycle  12  Pass 1  IDiag  1:
 E= -382.308266578550     Delta-E=       -0.000000000014 Rises=F Damp=F
 DIIS: error= 8.18D-08 at cycle   5 NSaved=   5.
 NSaved= 5 IEnMin= 5 EnMin= -382.308266578550     IErMin= 5 ErrMin= 8.18D-08
 ErrMax= 8.18D-08  0.00D+00 EMaxC= 1.00D-01 BMatC= 2.97D-13 BMatP= 9.10D-12
 IDIUse=1 WtCom= 1.00D+00 WtEn= 0.00D+00
 Coeff-Com: -0.437D-02 0.490D-01 0.849D-01 0.191D+00 0.680D+00
 Coeff:     -0.437D-02 0.490D-01 0.849D-01 0.191D+00 0.680D+00
 Gap=     0.191 Goal=   None    Shift=    0.000
 RMSDP=1.32D-08 MaxDP=2.34D-07 DE=-1.35D-11 OVMax= 7.88D-08

 Cycle  13  Pass 1  IDiag  1:
 E= -382.308266578550     Delta-E=        0.000000000000 Rises=F Damp=F
 DIIS: error= 1.71D-08 at cycle   6 NSaved=   6.
 NSaved= 6 IEnMin= 6 EnMin= -382.308266578550     IErMin= 6 ErrMin= 1.71D-08
 ErrMax= 1.71D-08  0.00D+00 EMaxC= 1.00D-01 BMatC= 2.43D-14 BMatP= 2.97D-13
 IDIUse=1 WtCom= 1.00D+00 WtEn= 0.00D+00
 Coeff-Com: -0.976D-03 0.481D-02 0.567D-02 0.510D-01 0.305D+00 0.634D+00
 Coeff:     -0.976D-03 0.481D-02 0.567D-02 0.510D-01 0.305D+00 0.634D+00
 Gap=     0.191 Goal=   None    Shift=    0.000
 RMSDP=3.57D-09 MaxDP=4.19D-08 DE=-4.55D-13 OVMax= 1.77D-08

 SCF Done:  E(RB3LYP) =  -382.308266579     A.U. after   13 cycles
            NFock= 13  Conv=0.36D-08     -V/T= 2.0172
 KE= 3.758473515297D+02 PE=-1.776414994210D+03 EE= 5.723598972071D+02
 Leave Link  502 at Mon Sep  1 17:06:28 2014, MaxMem=   131072000 cpu:         3.6
 (Enter /usr/local/gaussian-2009-D.01_intel_sse4.2/g09/l601.exe)
 Copying SCF densities to generalized density rwf, IOpCl= 0 IROHF=0.

 **********************************************************************

            Population analysis using the SCF density.

 **********************************************************************

 Orbital symmetries:
       Occupied  (BU) (AG) (BU) (AG) (BU) (AG) (BU) (AG) (BU) (AG)
                 (AG) (BU) (AG) (BU) (BU) (AG) (AG) (BU) (AG) (AG)
                 (BU) (BU) (BU) (AG) (BU) (BU) (AG) (AU) (BU) (AG)
                 (AG) (BG) (AU) (BG) (BG)
       Virtual   (AU) (AU) (BG) (AU) (BG) (AG) (BU) (BU) (AG) (AG)
                 (BU) (BU) (AG) (BU) (AG) (AG) (BU) (AG) (BU) (BU)
                 (AG) (AG) (BU) (AG) (BU)
 The electronic state is 1-AG.
 Alpha  occ. eigenvalues --  -10.02021 -10.02016 -10.00812 -10.00811 -10.00679
 Alpha  occ. eigenvalues --  -10.00678 -10.00605 -10.00591  -9.99233  -9.99233
 Alpha  occ. eigenvalues --   -0.80951  -0.75399  -0.71797  -0.69978  -0.66751
 Alpha  occ. eigenvalues --   -0.58869  -0.55892  -0.53167  -0.51017  -0.45744
 Alpha  occ. eigenvalues --   -0.43937  -0.41060  -0.39796  -0.39607  -0.37396
 Alpha  occ. eigenvalues --   -0.35115  -0.34729  -0.32451  -0.31125  -0.29278
 Alpha  occ. eigenvalues --   -0.28746  -0.26355  -0.21245  -0.19505  -0.15309
 Alpha virt. eigenvalues --    0.03742   0.09036   0.11061   0.18220   0.27253
 Alpha virt. eigenvalues --    0.33223   0.34073   0.37936   0.38145   0.41097
 Alpha virt. eigenvalues --    0.41195   0.42676   0.43964   0.45276   0.47826
 Alpha virt. eigenvalues --    0.52624   0.54582   0.57601   0.59944   0.62498
 Alpha virt. eigenvalues --    0.63971   0.68280   0.71725   0.77956   0.79458
          Condensed to atoms (all electrons):
               1          2          3          4          5          6
     1  C    4.778705   0.488325  -0.027150  -0.009776  -0.026980  -0.024562
     2  C    0.488325   4.810689   0.508956  -0.026980  -0.010504   0.387878
     3  C   -0.027150   0.508956   4.815061   0.488800  -0.030713  -0.025273
     4  C   -0.009776  -0.026980   0.488800   4.778705   0.488325   0.001331
     5  C   -0.026980  -0.010504  -0.030713   0.488325   4.810689   0.000032
     6  H   -0.024562   0.387878  -0.025273   0.001331   0.000032   0.586988
     7  H    0.001335  -0.025206   0.387925  -0.025305   0.001342  -0.003825
     8  H    0.001331   0.000032   0.001346  -0.024562   0.387878   0.000002
     9  C    0.000016   0.000818  -0.028765   0.411854  -0.024071  -0.000015
    10  C    0.000000  -0.000007   0.000680  -0.023794  -0.003969   0.000000
    11  H    0.000000   0.000000   0.000013  -0.003533  -0.000563   0.000000
    12  H   -0.000001   0.000022  -0.003962  -0.026070   0.001086  -0.000002
    13  H    0.000000   0.000000  -0.000016   0.001320   0.000018   0.000000
    14  C    0.411854  -0.024071   0.000749   0.000016   0.000818  -0.003040
    15  H   -0.026070   0.001086  -0.000017  -0.000001   0.000022   0.000019
    16  C   -0.023794  -0.003969   0.000015   0.000000  -0.000007  -0.000607
    17  H   -0.003533  -0.000563  -0.000012   0.000000   0.000000   0.000563
    18  H    0.001320   0.000018   0.000000   0.000000   0.000000  -0.000017
    19  C    0.488800  -0.030713  -0.011068  -0.027150   0.508956   0.001346
    20  H   -0.025305   0.001342   0.000039   0.001335  -0.025206  -0.000034
               7          8          9         10         11         12
     1  C    0.001335   0.001331   0.000016   0.000000   0.000000  -0.000001
     2  C   -0.025206   0.000032   0.000818  -0.000007   0.000000   0.000022
     3  C    0.387925   0.001346  -0.028765   0.000680   0.000013  -0.003962
     4  C   -0.025305  -0.024562   0.411854  -0.023794  -0.003533  -0.026070
     5  C    0.001342   0.387878  -0.024071  -0.003969  -0.000563   0.001086
     6  H   -0.003825   0.000002  -0.000015   0.000000   0.000000  -0.000002
     7  H    0.588891  -0.000034  -0.003903   0.000029   0.000001   0.001033
     8  H   -0.000034   0.586988  -0.003040  -0.000607   0.000563   0.000019
     9  C   -0.003903  -0.003040   4.798255   0.586099  -0.023816   0.386256
    10  C    0.000029  -0.000607   0.586099   4.849812   0.385951  -0.027659
    11  H    0.000001   0.000563  -0.023816   0.385951   0.586747   0.002044
    12  H    0.001033   0.000019   0.386256  -0.027659   0.002044   0.595452
    13  H   -0.000002  -0.000017  -0.024045   0.388264  -0.023726  -0.005090
    14  C   -0.000014  -0.000015   0.000000   0.000000   0.000000   0.000000
    15  H    0.000000  -0.000002   0.000000   0.000000   0.000000   0.000000
    16  C    0.000000   0.000000   0.000000   0.000000   0.000000   0.000000
    17  H    0.000002   0.000000   0.000000   0.000000   0.000000   0.000000
    18  H    0.000000   0.000000   0.000000   0.000000   0.000000   0.000000
    19  C    0.000039  -0.025273   0.000749   0.000015  -0.000012  -0.000017
    20  H    0.000002  -0.003825  -0.000014   0.000000   0.000002   0.000000
              13         14         15         16         17         18
     1  C    0.000000   0.411854  -0.026070  -0.023794  -0.003533   0.001320
     2  C    0.000000  -0.024071   0.001086  -0.003969  -0.000563   0.000018
     3  C   -0.000016   0.000749  -0.000017   0.000015  -0.000012   0.000000
     4  C    0.001320   0.000016  -0.000001   0.000000   0.000000   0.000000
     5  C    0.000018   0.000818   0.000022  -0.000007   0.000000   0.000000
     6  H    0.000000  -0.003040   0.000019  -0.000607   0.000563  -0.000017
     7  H   -0.000002  -0.000014   0.000000   0.000000   0.000002   0.000000
     8  H   -0.000017  -0.000015  -0.000002   0.000000   0.000000   0.000000
     9  C   -0.024045   0.000000   0.000000   0.000000   0.000000   0.000000
    10  C    0.388264   0.000000   0.000000   0.000000   0.000000   0.000000
    11  H   -0.023726   0.000000   0.000000   0.000000   0.000000   0.000000
    12  H   -0.005090   0.000000   0.000000   0.000000   0.000000   0.000000
    13  H    0.583948   0.000000   0.000000   0.000000   0.000000   0.000000
    14  C    0.000000   4.798255   0.386256   0.586099  -0.023816  -0.024045
    15  H    0.000000   0.386256   0.595452  -0.027659   0.002044  -0.005090
    16  C    0.000000   0.586099  -0.027659   4.849812   0.385951   0.388264
    17  H    0.000000  -0.023816   0.002044   0.385951   0.586747  -0.023726
    18  H    0.000000  -0.024045  -0.005090   0.388264  -0.023726   0.583948
    19  C    0.000000  -0.028765  -0.003962   0.000680   0.000013  -0.000016
    20  H    0.000000  -0.003903   0.001033   0.000029   0.000001  -0.000002
              19         20
     1  C    0.488800  -0.025305
     2  C   -0.030713   0.001342
     3  C   -0.011068   0.000039
     4  C   -0.027150   0.001335
     5  C    0.508956  -0.025206
     6  H    0.001346  -0.000034
     7  H    0.000039   0.000002
     8  H   -0.025273  -0.003825
     9  C    0.000749  -0.000014
    10  C    0.000015   0.000000
    11  H   -0.000012   0.000002
    12  H   -0.000017   0.000000
    13  H    0.000000   0.000000
    14  C   -0.028765  -0.003903
    15  H   -0.003962   0.001033
    16  C    0.000680   0.000029
    17  H    0.000013   0.000001
    18  H   -0.000016  -0.000002
    19  C    4.815061   0.387925
    20  H    0.387925   0.588891
 Mulliken charges:
               1
     1  C   -0.004514
     2  C   -0.077154
     3  C   -0.076609
     4  C   -0.004514
     5  C   -0.077154
     6  H    0.079217
     7  H    0.077690
     8  H    0.079217
     9  C   -0.076379
    10  C   -0.154814
    11  H    0.076330
    12  H    0.076887
    13  H    0.079346
    14  C   -0.076379
    15  H    0.076887
    16  C   -0.154814
    17  H    0.076330
    18  H    0.079346
    19  C   -0.076609
    20  H    0.077690
 Sum of Mulliken charges =   0.00000
 Mulliken charges with hydrogens summed into heavy atoms:
               1
     1  C   -0.004514
     2  C    0.002064
     3  C    0.001081
     4  C   -0.004514
     5  C    0.002064
     9  C    0.000508
    10  C    0.000861
    14  C    0.000508
    16  C    0.000861
    19  C    0.001081
 Electronic spatial extent (au):  <R**2>=           1861.7253
 Charge=              0.0000 electrons
 Dipole moment (field-independent basis, Debye):
    X=              0.0000    Y=              0.0000    Z=              0.0000  Tot=              0.0000
 Quadrupole moment (field-independent basis, Debye-Ang):
   XX=            -50.2216   YY=            -50.7166   ZZ=            -58.6254
   XY=             -0.0592   XZ=              0.0000   YZ=              0.0000
 Traceless Quadrupole moment (field-independent basis, Debye-Ang):
   XX=              2.9663   YY=              2.4712   ZZ=             -5.4375
   XY=             -0.0592   XZ=              0.0000   YZ=              0.0000
 Octapole moment (field-independent basis, Debye-Ang**2):
  XXX=              0.0000  YYY=              0.0000  ZZZ=              0.0000  XYY=              0.0000
  XXY=              0.0000  XXZ=              0.0000  XZZ=              0.0000  YZZ=              0.0000
  YYZ=              0.0000  XYZ=              0.0000
 Hexadecapole moment (field-independent basis, Debye-Ang**3):
 XXXX=           -330.0937 YYYY=          -1861.9922 ZZZZ=            -47.6115 XXXY=             13.8196
 XXXZ=              0.0000 YYYX=              8.0840 YYYZ=              0.0000 ZZZX=              0.0000
 ZZZY=              0.0000 XXYY=           -367.7211 XXZZ=            -72.2589 YYZZ=           -367.5321
 XXYZ=              0.0000 YYXZ=              0.0000 ZZXY=              5.8264
 N-N= 4.458994788941D+02 E-N=-1.776414994846D+03  KE= 3.758473515297D+02
 Symmetry AG   KE= 1.814054793550D+02
 Symmetry BG   KE= 7.823289990370D+00
 Symmetry AU   KE= 4.696945301501D+00
 Symmetry BU   KE= 1.819216368829D+02
 No NMR shielding tensors so no spin-rotation constants.
 Leave Link  601 at Mon Sep  1 17:06:28 2014, MaxMem=   131072000 cpu:         0.1
 (Enter /usr/local/gaussian-2009-D.01_intel_sse4.2/g09/l701.exe)
 Compute integral first derivatives.
 ... and contract with generalized density number  0.
 Leave Link  701 at Mon Sep  1 17:06:29 2014, MaxMem=   131072000 cpu:         0.1
 (Enter /usr/local/gaussian-2009-D.01_intel_sse4.2/g09/l702.exe)
 L702 exits ... SP integral derivatives will be done elsewhere.
 Leave Link  702 at Mon Sep  1 17:06:29 2014, MaxMem=   131072000 cpu:         0.0
 (Enter /usr/local/gaussian-2009-D.01_intel_sse4.2/g09/l703.exe)
 Compute integral first derivatives, UseDBF=F ICtDFT=           0.
 Integral derivatives from FoFJK, PRISM(SPDF).
 Calling FoFJK, ICntrl=      2127 FMM=F ISym2X=1 I1Cent= 0 IOpClX= 0 NMat=1 NMatS=1 NMatT=0.
 FoFJK:  IHMeth= 1 ICntrl=    2127 DoSepK=F KAlg= 0 I1Cent=   0 FoldK=F
 IRaf=         0 NMat=   1 IRICut=       1 DoRegI=T DoRafI=F ISym2E= 1.
 FoFCou: FMM=F IPFlag=           0 FMFlag=      100000 FMFlg1=         800
         NFxFlg=           0 DoJE=F BraDBF=F KetDBF=F FulRan=T
         wScrn=  0.000000 ICntrl=    2127 IOpCl=  0 I1Cent=           0 NGrid=           0
         NMat0=    1 NMatS0=      1 NMatT0=    0 NMatD0=    1 NMtDS0=    0 NMtDT0=    0
 Petite list used in FoFCou.
 Leave Link  703 at Mon Sep  1 17:06:30 2014, MaxMem=   131072000 cpu:         1.0
 (Enter /usr/local/gaussian-2009-D.01_intel_sse4.2/g09/l716.exe)
 Dipole        = 3.55271368D-15 1.04360964D-14 0.00000000D+00
 ***** Axes restored to original set *****
 -------------------------------------------------------------------
 Center     Atomic                   Forces (Hartrees/Bohr)
 Number     Number              X              Y              Z
 -------------------------------------------------------------------
      1        6           0.000037299   -0.000032086    0.000000000
      2        6          -0.000027340   -0.000032536    0.000000000
      3        6           0.000004605    0.000016309    0.000000000
      4        6          -0.000037299    0.000032086    0.000000000
      5        6           0.000027340    0.000032536    0.000000000
      6        1           0.000009913    0.000004289    0.000000000
      7        1          -0.000004558   -0.000007141    0.000000000
      8        1          -0.000009913   -0.000004289    0.000000000
      9        6           0.000026774   -0.000054424    0.000000000
     10        6           0.000013210    0.000017060    0.000000000
     11        1          -0.000013804    0.000013112    0.000000000
     12        1          -0.000011940    0.000001292    0.000000000
     13        1          -0.000007406   -0.000004107    0.000000000
     14        6          -0.000026774    0.000054424    0.000000000
     15        1           0.000011940   -0.000001292    0.000000000
     16        6          -0.000013210   -0.000017060    0.000000000
     17        1           0.000013804   -0.000013112    0.000000000
     18        1           0.000007406    0.000004107    0.000000000
     19        6          -0.000004605   -0.000016309    0.000000000
     20        1           0.000004558    0.000007141    0.000000000
 -------------------------------------------------------------------
 Cartesian Forces:  Max     0.000054424 RMS     0.000017725
 Leave Link  716 at Mon Sep  1 17:06:30 2014, MaxMem=   131072000 cpu:         0.0
 (Enter /usr/local/gaussian-2009-D.01_intel_sse4.2/g09/l103.exe)

 GradGradGradGradGradGradGradGradGradGradGradGradGradGradGradGradGradGrad
 Berny optimization.
 FormGI is forming the generalized inverse of G from B-inverse, IUseBI=4.
 Internal  Forces:  Max     0.000035600 RMS     0.000010645
 Search for a local minimum.
 Step number   1 out of a maximum of  100 on scan point     1 out of    13
 All quantities printed in internal units (Hartrees-Bohrs-Radians)
 RMS Force = .10705D-04 SwitMx=.10000D-02 MixMth= 2
 Mixed Optimization -- En-DIIS/RFO-DIIS
 Second derivative matrix not updated -- first step.
 ITU=  0
     Eigenvalues ---    0.00798   0.01253   0.01495   0.01682   0.01800
     Eigenvalues ---    0.01852   0.01866   0.01887   0.01927   0.01934
     Eigenvalues ---    0.01966   0.01975   0.02826   0.02826   0.02826
     Eigenvalues ---    0.02826   0.16000   0.16000   0.16000   0.16000
     Eigenvalues ---    0.16000   0.16000   0.16000   0.16000   0.16000
     Eigenvalues ---    0.16000   0.22000   0.22000   0.22000   0.22948
     Eigenvalues ---    0.24000   0.25000   0.25000   0.32630   0.32630
     Eigenvalues ---    0.33638   0.33638   0.33830   0.33830   0.33946
     Eigenvalues ---    0.33946   0.34102   0.34102   0.34129   0.34129
     Eigenvalues ---    0.39143   0.39744   0.42094   0.42287   0.43758
     Eigenvalues ---    0.45262   0.56260   0.562601000.000001000.00000
     Eigenvalues --- 1000.000001000.000001000.000001000.000001000.00000
     Eigenvalues --- 1000.000001000.000001000.000001000.000001000.00000
     Eigenvalues --- 1000.000001000.000001000.000001000.000001000.00000
     Eigenvalues --- 1000.000001000.000001000.000001000.000001000.00000
     Eigenvalues --- 1000.000001000.000001000.000001000.000001000.00000
     Eigenvalues --- 1000.000001000.000001000.000001000.000001000.00000
     Eigenvalues --- 1000.000001000.000001000.000001000.000001000.00000
 RFO step:  Lambda=-3.80837873D-08 EMin= 7.97602396D-03
 Linear search not attempted -- first point.
 Iteration  1 RMS(Cart)=  0.00013260 RMS(Int)=  0.00000001
 Iteration  2 RMS(Cart)=  0.00000001 RMS(Int)=  0.00000000
 Iteration  1 RMS(Cart)=  0.00000000 RMS(Int)=  0.00000000
 ITry= 1 IFail=0 DXMaxC= 6.67D-04 DCOld= 1.00D+10 DXMaxT= 3.00D-01 DXLimC= 3.00D+00 Rises=F
 ClnCor:  largest displacement from symmetrization is 1.01D-12 for atom    18.
 Variable       Old X    -DE/DX   Delta X   Delta X   Delta X     New X
                                 (Linear)    (Quad)   (Total)
    R1        2.68559   0.00001   0.00000   0.00003   0.00003   2.68561
    R2        2.83007  -0.00003   0.00000  -0.00010  -0.00010   2.82997
    R3        2.68803   0.00001   0.00000   0.00002   0.00002   2.68806
    R4        2.64973   0.00002   0.00000   0.00005   0.00005   2.64977
    R5        2.07422  -0.00001   0.00000  -0.00003  -0.00003   2.07419
    R6        2.68803   0.00001   0.00000   0.00002   0.00002   2.68806
    R7        2.07617   0.00000   0.00000   0.00001   0.00001   2.07618
    R8        2.68559   0.00001   0.00000   0.00003   0.00003   2.68561
    R9        2.83007  -0.00003   0.00000  -0.00010  -0.00010   2.82997
   R10        2.07422  -0.00001   0.00000  -0.00003  -0.00003   2.07419
   R11        2.64973   0.00002   0.00000   0.00005   0.00005   2.64977
   R12        2.54029   0.00002   0.00000   0.00004   0.00004   2.54033
   R13        2.07946   0.00001   0.00000   0.00003   0.00003   2.07949
   R14        2.07113  -0.00001   0.00000  -0.00003  -0.00003   2.07110
   R15        2.07158   0.00000   0.00000  -0.00001  -0.00001   2.07157
   R16        2.07946   0.00001   0.00000   0.00003   0.00003   2.07949
   R17        2.54029   0.00002   0.00000   0.00004   0.00004   2.54033
   R18        2.07113  -0.00001   0.00000  -0.00003  -0.00003   2.07110
   R19        2.07158   0.00000   0.00000  -0.00001  -0.00001   2.07157
   R20        2.07617   0.00000   0.00000   0.00001   0.00001   2.07618
    A1        2.14744  -0.00001   0.00000  -0.00002  -0.00002   2.14742
    A2        2.05581   0.00000   0.00000   0.00001   0.00001   2.05581
    A3        2.07994   0.00000   0.00000   0.00001   0.00001   2.07995
    A4        2.10935  -0.00001   0.00000  -0.00004  -0.00004   2.10932
    A5        2.09029   0.00000   0.00000   0.00002   0.00002   2.09030
    A6        2.08355   0.00000   0.00000   0.00002   0.00002   2.08357
    A7        2.11803   0.00001   0.00000   0.00003   0.00003   2.11806
    A8        2.08792  -0.00001   0.00000  -0.00005  -0.00005   2.08786
    A9        2.07724   0.00000   0.00000   0.00002   0.00002   2.07726
   A10        2.05581   0.00000   0.00000   0.00001   0.00001   2.05581
   A11        2.07994   0.00000   0.00000   0.00001   0.00001   2.07995
   A12        2.14744  -0.00001   0.00000  -0.00002  -0.00002   2.14742
   A13        2.09029   0.00000   0.00000   0.00002   0.00002   2.09030
   A14        2.10935  -0.00001   0.00000  -0.00004  -0.00004   2.10932
   A15        2.08355   0.00000   0.00000   0.00002   0.00002   2.08357
   A16        2.20947   0.00004   0.00000   0.00016   0.00016   2.20963
   A17        1.99724  -0.00002   0.00000  -0.00007  -0.00007   1.99717
   A18        2.07647  -0.00002   0.00000  -0.00009  -0.00009   2.07638
   A19        2.14059   0.00002   0.00000   0.00010   0.00010   2.14069
   A20        2.11583  -0.00001   0.00000  -0.00007  -0.00007   2.11576
   A21        2.02676   0.00000   0.00000  -0.00003  -0.00003   2.02673
   A22        1.99724  -0.00002   0.00000  -0.00007  -0.00007   1.99717
   A23        2.20947   0.00004   0.00000   0.00016   0.00016   2.20963
   A24        2.07647  -0.00002   0.00000  -0.00009  -0.00009   2.07638
   A25        2.14059   0.00002   0.00000   0.00010   0.00010   2.14069
   A26        2.11583  -0.00001   0.00000  -0.00007  -0.00007   2.11576
   A27        2.02676   0.00000   0.00000  -0.00003  -0.00003   2.02673
   A28        2.11803   0.00001   0.00000   0.00003   0.00003   2.11806
   A29        2.07724   0.00000   0.00000   0.00002   0.00002   2.07726
   A30        2.08792  -0.00001   0.00000  -0.00005  -0.00005   2.08786
    D1        3.14159   0.00000   0.00000   0.00000   0.00000   3.14159
    D2        0.00000   0.00000   0.00000   0.00000   0.00000   0.00000
    D3        0.00000   0.00000   0.00000   0.00000   0.00000   0.00000
    D4        3.14159   0.00000   0.00000   0.00000   0.00000   3.14159
    D5        3.14159   0.00000   0.00000   0.00000   0.00000   3.14159
    D6        0.00000   0.00000   0.00000   0.00000   0.00000   0.00000
    D7        0.00000   0.00000   0.00000   0.00000   0.00000   0.00000
    D8        3.14159   0.00000   0.00000   0.00000   0.00000   3.14159
    D9        0.00000   0.00000   0.00000   0.00000   0.00000   0.00000
   D10        3.14159   0.00000   0.00000   0.00000   0.00000   3.14159
   D11        3.14159   0.00000   0.00000   0.00000   0.00000   3.14159
   D12        0.00000   0.00000   0.00000   0.00000   0.00000   0.00000
   D13        0.00000   0.00000   0.00000   0.00000   0.00000   0.00000
   D14        3.14159   0.00000   0.00000   0.00000   0.00000   3.14159
   D15        3.14159   0.00000   0.00000   0.00000   0.00000   3.14159
   D16        0.00000   0.00000   0.00000   0.00000   0.00000   0.00000
   D17        0.00000   0.00000   0.00000   0.00000   0.00000   0.00000
   D18        3.14159   0.00000   0.00000   0.00000   0.00000   3.14159
   D19        3.14159   0.00000   0.00000   0.00000   0.00000   3.14159
   D20        0.00000   0.00000   0.00000   0.00000   0.00000   0.00000
   D21        3.14159   0.00000   0.00000   0.00000   0.00000   3.14159
   D22        0.00000   0.00000   0.00000   0.00000   0.00000   0.00000
   D23        0.00000   0.00000   0.00000   0.00000   0.00000   0.00000
   D24        3.14159   0.00000   0.00000   0.00000   0.00000   3.14159
   D25        3.14159   0.00000   0.00000   0.00000   0.00000   3.14159
   D26        0.00000   0.00000   0.00000   0.00000   0.00000   0.00000
   D27        0.00000   0.00000   0.00000   0.00000   0.00000   0.00000
   D28        3.14159   0.00000   0.00000   0.00000   0.00000   3.14159
   D29        0.00000   0.00000   0.00000   0.00000   0.00000   0.00000
   D30        3.14159   0.00000   0.00000   0.00000   0.00000   3.14159
   D31        3.14159   0.00000   0.00000   0.00000   0.00000   3.14159
   D32        0.00000   0.00000   0.00000   0.00000   0.00000   0.00000
   D33        0.00000   0.00000   0.00000   0.00000   0.00000   0.00000
   D34        3.14159   0.00000   0.00000   0.00000   0.00000   3.14159
   D35        3.14159   0.00000   0.00000   0.00000   0.00000   3.14159
   D36        0.00000   0.00000   0.00000   0.00000   0.00000   0.00000
   D37        0.00000   0.00000   0.00000   0.00000   0.00000   0.00000
   D38        3.14159   0.00000   0.00000   0.00000   0.00000   3.14159
   D39        3.14159   0.00000   0.00000   0.00000   0.00000   3.14159
   D40        0.00000   0.00000   0.00000   0.00000   0.00000   0.00000
         Item               Value     Threshold  Converged?
 Maximum Force            0.000036     0.000450     YES
 RMS     Force            0.000011     0.000300     YES
 Maximum Displacement     0.000667     0.001800     YES
 RMS     Displacement     0.000133     0.001200     YES
 Predicted change in Energy=-1.904189D-08
 Optimization completed.
    -- Stationary point found.
                           ----------------------------
                           !   Optimized Parameters   !
                           ! (Angstroms and Degrees)  !
 --------------------------                            --------------------------
 ! Name  Definition              Value          Derivative Info.                !
 --------------------------------------------------------------------------------
 ! R1    R(1,2)                  1.4212         -DE/DX =    0.0                 !
 ! R2    R(1,14)                 1.4976         -DE/DX =    0.0                 !
 ! R3    R(1,19)                 1.4224         -DE/DX =    0.0                 !
 ! R4    R(2,3)                  1.4022         -DE/DX =    0.0                 !
 ! R5    R(2,6)                  1.0976         -DE/DX =    0.0                 !
 ! R6    R(3,4)                  1.4224         -DE/DX =    0.0                 !
 ! R7    R(3,7)                  1.0987         -DE/DX =    0.0                 !
 ! R8    R(4,5)                  1.4212         -DE/DX =    0.0                 !
 ! R9    R(4,9)                  1.4976         -DE/DX =    0.0                 !
 ! R10   R(5,8)                  1.0976         -DE/DX =    0.0                 !
 ! R11   R(5,19)                 1.4022         -DE/DX =    0.0                 !
 ! R12   R(9,10)                 1.3443         -DE/DX =    0.0                 !
 ! R13   R(9,12)                 1.1004         -DE/DX =    0.0                 !
 ! R14   R(10,11)                1.096          -DE/DX =    0.0                 !
 ! R15   R(10,13)                1.0962         -DE/DX =    0.0                 !
 ! R16   R(14,15)                1.1004         -DE/DX =    0.0                 !
 ! R17   R(14,16)                1.3443         -DE/DX =    0.0                 !
 ! R18   R(16,17)                1.096          -DE/DX =    0.0                 !
 ! R19   R(16,18)                1.0962         -DE/DX =    0.0                 !
 ! R20   R(19,20)                1.0987         -DE/DX =    0.0                 !
 ! A1    A(2,1,14)             123.0393         -DE/DX =    0.0                 !
 ! A2    A(2,1,19)             117.789          -DE/DX =    0.0                 !
 ! A3    A(14,1,19)            119.1718         -DE/DX =    0.0                 !
 ! A4    A(1,2,3)              120.8571         -DE/DX =    0.0                 !
 ! A5    A(1,2,6)              119.7645         -DE/DX =    0.0                 !
 ! A6    A(3,2,6)              119.3784         -DE/DX =    0.0                 !
 ! A7    A(2,3,4)              121.3539         -DE/DX =    0.0                 !
 ! A8    A(2,3,7)              119.6288         -DE/DX =    0.0                 !
 ! A9    A(4,3,7)              119.0173         -DE/DX =    0.0                 !
 ! A10   A(3,4,5)              117.789          -DE/DX =    0.0                 !
 ! A11   A(3,4,9)              119.1718         -DE/DX =    0.0                 !
 ! A12   A(5,4,9)              123.0393         -DE/DX =    0.0                 !
 ! A13   A(4,5,8)              119.7645         -DE/DX =    0.0                 !
 ! A14   A(4,5,19)             120.8571         -DE/DX =    0.0                 !
 ! A15   A(8,5,19)             119.3784         -DE/DX =    0.0                 !
 ! A16   A(4,9,10)             126.5934         -DE/DX =    0.0                 !
 ! A17   A(4,9,12)             114.4334         -DE/DX =    0.0                 !
 ! A18   A(10,9,12)            118.9732         -DE/DX =    0.0                 !
 ! A19   A(9,10,11)            122.647          -DE/DX =    0.0                 !
 ! A20   A(9,10,13)            121.2283         -DE/DX =    0.0                 !
 ! A21   A(11,10,13)           116.1247         -DE/DX =    0.0                 !
 ! A22   A(1,14,15)            114.4334         -DE/DX =    0.0                 !
 ! A23   A(1,14,16)            126.5934         -DE/DX =    0.0                 !
 ! A24   A(15,14,16)           118.9732         -DE/DX =    0.0                 !
 ! A25   A(14,16,17)           122.647          -DE/DX =    0.0                 !
 ! A26   A(14,16,18)           121.2283         -DE/DX =    0.0                 !
 ! A27   A(17,16,18)           116.1247         -DE/DX =    0.0                 !
 ! A28   A(1,19,5)             121.3539         -DE/DX =    0.0                 !
 ! A29   A(1,19,20)            119.0173         -DE/DX =    0.0                 !
 ! A30   A(5,19,20)            119.6288         -DE/DX =    0.0                 !
 ! D1    D(14,1,2,3)           180.0            -DE/DX =    0.0                 !
 ! D2    D(14,1,2,6)             0.0            -DE/DX =    0.0                 !
 ! D3    D(19,1,2,3)             0.0            -DE/DX =    0.0                 !
 ! D4    D(19,1,2,6)           180.0            -DE/DX =    0.0                 !
 ! D5    D(2,1,14,15)          180.0            -DE/DX =    0.0                 !
 ! D6    D(2,1,14,16)            0.0            -DE/DX =    0.0                 !
 ! D7    D(19,1,14,15)           0.0            -DE/DX =    0.0                 !
 ! D8    D(19,1,14,16)         180.0            -DE/DX =    0.0                 !
 ! D9    D(2,1,19,5)             0.0            -DE/DX =    0.0                 !
 ! D10   D(2,1,19,20)          180.0            -DE/DX =    0.0                 !
 ! D11   D(14,1,19,5)          180.0            -DE/DX =    0.0                 !
 ! D12   D(14,1,19,20)           0.0            -DE/DX =    0.0                 !
 ! D13   D(1,2,3,4)              0.0            -DE/DX =    0.0                 !
 ! D14   D(1,2,3,7)            180.0            -DE/DX =    0.0                 !
 ! D15   D(6,2,3,4)            180.0            -DE/DX =    0.0                 !
 ! D16   D(6,2,3,7)              0.0            -DE/DX =    0.0                 !
 ! D17   D(2,3,4,5)              0.0            -DE/DX =    0.0                 !
 ! D18   D(2,3,4,9)            180.0            -DE/DX =    0.0                 !
 ! D19   D(7,3,4,5)            180.0            -DE/DX =    0.0                 !
 ! D20   D(7,3,4,9)              0.0            -DE/DX =    0.0                 !
 ! D21   D(3,4,5,8)            180.0            -DE/DX =    0.0                 !
 ! D22   D(3,4,5,19)             0.0            -DE/DX =    0.0                 !
 ! D23   D(9,4,5,8)              0.0            -DE/DX =    0.0                 !
 ! D24   D(9,4,5,19)           180.0            -DE/DX =    0.0                 !
 ! D25   D(3,4,9,10)           180.0            -DE/DX =    0.0                 !
 ! D26   D(3,4,9,12)             0.0            -DE/DX =    0.0                 !
 ! D27   D(5,4,9,10)             0.0            -DE/DX =    0.0                 !
 ! D28   D(5,4,9,12)           180.0            -DE/DX =    0.0                 !
 ! D29   D(4,5,19,1)             0.0            -DE/DX =    0.0                 !
 ! D30   D(4,5,19,20)          180.0            -DE/DX =    0.0                 !
 ! D31   D(8,5,19,1)           180.0            -DE/DX =    0.0                 !
 ! D32   D(8,5,19,20)            0.0            -DE/DX =    0.0                 !
 ! D33   D(4,9,10,11)            0.0            -DE/DX =    0.0                 !
 ! D34   D(4,9,10,13)          180.0            -DE/DX =    0.0                 !
 ! D35   D(12,9,10,11)         180.0            -DE/DX =    0.0                 !
 ! D36   D(12,9,10,13)           0.0            -DE/DX =    0.0                 !
 ! D37   D(1,14,16,17)           0.0            -DE/DX =    0.0                 !
 ! D38   D(1,14,16,18)         180.0            -DE/DX =    0.0                 !
 ! D39   D(15,14,16,17)        180.0            -DE/DX =    0.0                 !
 ! D40   D(15,14,16,18)          0.0            -DE/DX =    0.0                 !
 --------------------------------------------------------------------------------
 Lowest energy point so far.  Saving SCF results.
 Iteration  1 RMS(Cart)=  0.03181689 RMS(Int)=  0.04690689
 Iteration  2 RMS(Cart)=  0.01439254 RMS(Int)=  0.04413961
 Iteration  3 RMS(Cart)=  0.00647557 RMS(Int)=  0.04314376
 Iteration  4 RMS(Cart)=  0.00292989 RMS(Int)=  0.04274893
 Iteration  5 RMS(Cart)=  0.00132802 RMS(Int)=  0.04258183
 Iteration  6 RMS(Cart)=  0.00060230 RMS(Int)=  0.04250853
 Iteration  7 RMS(Cart)=  0.00027322 RMS(Int)=  0.04247580
 Iteration  8 RMS(Cart)=  0.00012395 RMS(Int)=  0.04246105
 Iteration  9 RMS(Cart)=  0.00005623 RMS(Int)=  0.04245438
 Iteration 10 RMS(Cart)=  0.00002551 RMS(Int)=  0.04245136
 Iteration 11 RMS(Cart)=  0.00001158 RMS(Int)=  0.04244999
 Iteration 12 RMS(Cart)=  0.00000525 RMS(Int)=  0.04244937
 Iteration 13 RMS(Cart)=  0.00000238 RMS(Int)=  0.04244909
 Iteration 14 RMS(Cart)=  0.00000108 RMS(Int)=  0.04244896
 Iteration 15 RMS(Cart)=  0.00000049 RMS(Int)=  0.04244890
 Iteration  1 RMS(Cart)=  0.03188244 RMS(Int)=  0.03029253
 Iteration  2 RMS(Cart)=  0.03199394 RMS(Int)=  0.02823348
 Iteration  3 RMS(Cart)=  0.02884904 RMS(Int)=  0.03207503
 Iteration  4 RMS(Cart)=  0.01590110 RMS(Int)=  0.03595584
 Iteration  5 RMS(Cart)=  0.00872291 RMS(Int)=  0.03845129
 Iteration  6 RMS(Cart)=  0.00477168 RMS(Int)=  0.03990329
 Iteration  7 RMS(Cart)=  0.00260608 RMS(Int)=  0.04071909
 Iteration  8 RMS(Cart)=  0.00142205 RMS(Int)=  0.04117057
 Iteration  9 RMS(Cart)=  0.00077558 RMS(Int)=  0.04141861
 Iteration 10 RMS(Cart)=  0.00042289 RMS(Int)=  0.04155438
 Iteration 11 RMS(Cart)=  0.00023054 RMS(Int)=  0.04162856
 Iteration 12 RMS(Cart)=  0.00012568 RMS(Int)=  0.04166904
 Iteration 13 RMS(Cart)=  0.00006851 RMS(Int)=  0.04169112
 Iteration 14 RMS(Cart)=  0.00003734 RMS(Int)=  0.04170316
 Iteration 15 RMS(Cart)=  0.00002035 RMS(Int)=  0.04170972
 Iteration 16 RMS(Cart)=  0.00001109 RMS(Int)=  0.04171330
 Iteration 17 RMS(Cart)=  0.00000605 RMS(Int)=  0.04171525
 Iteration 18 RMS(Cart)=  0.00000330 RMS(Int)=  0.04171631
 Iteration 19 RMS(Cart)=  0.00000180 RMS(Int)=  0.04171689
 Iteration 20 RMS(Cart)=  0.00000098 RMS(Int)=  0.04171721
 GradGradGradGradGradGradGradGradGradGradGradGradGradGradGradGradGradGrad

 Leave Link  103 at Mon Sep  1 17:06:30 2014, MaxMem=   131072000 cpu:         0.0
 (Enter /usr/local/gaussian-2009-D.01_intel_sse4.2/g09/l202.exe)
                          Input orientation:                          
 ---------------------------------------------------------------------
 Center     Atomic      Atomic             Coordinates (Angstroms)
 Number     Number       Type             X           Y           Z
 ---------------------------------------------------------------------
      1          6           0        0.274083   -1.406440    0.046764
      2          6           0       -1.055082   -0.908407    0.015068
      3          6           0       -1.309511    0.468649    0.090784
      4          6           0       -0.257715    1.417313    0.243930
      5          6           0        1.073534    0.916523    0.213209
      6          1           0       -1.896558   -1.607304   -0.080167
      7          1           0       -2.346158    0.829679    0.042709
      8          1           0        1.917168    1.617347    0.258812
      9          6           0       -0.581915    2.878715    0.198338
     10          6           0        0.239406    3.860231   -0.234382
     11          1           0        1.296121    3.687791   -0.480648
     12          1           0       -1.652154    3.120934    0.285563
     13          1           0       -0.119876    4.888948   -0.360500
     14          6           0        0.603028   -2.865476   -0.032433
     15          1           0        1.679683   -3.091272   -0.003609
     16          6           0       -0.272931   -3.880784   -0.131793
     17          1           0       -1.357336   -3.725169   -0.165370
     18          1           0        0.066967   -4.921795   -0.184086
     19          6           0        1.330499   -0.460081    0.138590
     20          1           0        2.368748   -0.819402    0.139220
 ---------------------------------------------------------------------
                    Distance matrix (angstroms):
                    1          2          3          4          5
     1  C    0.000000
     2  C    1.419761   0.000000
     3  C    2.454723   1.402409   0.000000
     4  C    2.880150   2.469239   1.424672   0.000000
     5  C    2.462312   2.810806   2.427855   1.422658   0.000000
     6  H    2.183607   1.098002   2.164123   3.455308   3.908608
     7  H    3.444693   2.165314   1.098768   2.178853   3.425041
     8  H    3.447895   3.908083   3.429169   2.184113   1.097703
     9  C    4.372443   3.820964   2.519797   1.497625   2.567281
    10  C    5.274284   4.947507   3.742686   2.538457   3.092172
    11  H    5.222443   5.186417   4.180756   2.845082   2.865469
    12  H    4.925904   4.082310   2.681410   2.201936   3.506286
    13  H    6.320836   5.884299   4.599774   3.526554   4.187305
    14  C    1.497752   2.565483   3.845696   4.377160   3.819061
    15  H    2.194745   3.499169   4.649433   4.913463   4.059168
    16  C    2.540371   3.077069   4.476786   5.311424   4.994612
    17  H    2.843068   2.838673   4.201906   5.274639   5.253357
    18  H    3.529010   4.172043   5.570200   6.361831   5.937758
    19  C    1.421282   2.430483   2.799014   2.461327   1.402369
    20  H    2.177334   3.427236   3.897565   3.451400   2.167138
                    6          7          8          9         10
     6  H    0.000000
     7  H    2.481153   0.000000
     8  H    5.005775   4.340861   0.000000
     9  C    4.682970   2.708380   2.800022   0.000000
    10  C    5.871972   3.993265   2.844056   1.350996   0.000000
    11  H    6.196097   4.659282   2.284565   2.154680   1.098648
    12  H    4.748655   2.406340   3.873183   1.100767   2.096401
    13  H    6.740658   4.647212   3.903392   2.137011   1.096926
    14  C    2.798787   4.728373   4.680543   5.869674   6.738556
    15  H    3.872663   5.619911   4.721902   6.387202   7.102890
    16  C    2.794198   5.149484   5.931151   6.774606   7.758629
    17  H    2.187093   4.665587   6.280509   6.659192   7.751945
    18  H    3.853840   6.241318   6.810270   7.836788   8.783863
    19  C    3.431891   3.897497   2.162023   3.848176   4.471543
    20  H    4.343012   4.995911   2.481123   4.731382   5.154866
                   11         12         13         14         15
    11  H    0.000000
    12  H    3.098504   0.000000
    13  H    1.860714   2.427168   0.000000
    14  C    6.605042   6.405004   7.794953   0.000000
    15  H    6.806642   7.055229   8.188387   1.100454   0.000000
    16  C    7.737374   7.148462   8.774049   1.344630   2.110086
    17  H    7.879861   6.867270   8.704734   2.144709   3.106683
    18  H    8.701939   8.237805   9.814107   2.130448   2.446271
    19  C    4.193982   4.662778   5.564602   2.518806   2.658065
    20  H    4.674351   5.631635   6.247257   2.708071   2.378362
                   16         17         18         19         20
    16  C    0.000000
    17  H    1.096028   0.000000
    18  H    1.096343   1.860350   0.000000
    19  C    3.787519   4.240006   4.648389   0.000000
    20  H    4.052651   4.734972   4.715119   1.098668   0.000000
 Stoichiometry    C10H10
 Framework group  C1[X(C10H10)]
 Deg. of freedom    54
 Full point group                 C1      NOp   1
 Omega: Change in point group or standard orientation.

 Old FWG=C02H [SGH(C10H10)]
 New FWG=C01  [X(C10H10)]
 RotChk:  IX=2 Diff= 1.98D+00
 Largest Abelian subgroup         C1      NOp   1
 Largest concise Abelian subgroup C1      NOp   1
                         Standard orientation:                         
 ---------------------------------------------------------------------
 Center     Atomic      Atomic             Coordinates (Angstroms)
 Number     Number       Type             X           Y           Z
 ---------------------------------------------------------------------
      1          6           0        1.413528    0.239271    0.017925
      2          6           0        0.885895   -1.078561   -0.007423
      3          6           0       -0.497163   -1.301286    0.058117
      4          6           0       -1.423124   -0.227163    0.194304
      5          6           0       -0.892146    1.092173    0.157248
      6          1           0        1.566410   -1.936321   -0.089626
      7          1           0       -0.881082   -2.329905    0.015238
      8          1           0       -1.574107    1.951721    0.189786
      9          6           0       -2.891024   -0.518746    0.138361
     10          6           0       -3.849938    0.320845   -0.309701
     11          1           0       -3.651540    1.371329   -0.562978
     12          1           0       -3.158104   -1.582499    0.232099
     13          1           0       -4.885372   -0.016220   -0.442036
     14          6           0        2.880254    0.534616   -0.050971
     15          1           0        3.130051    1.606116   -0.028867
     16          6           0        3.876345   -0.364775   -0.134209
     17          1           0        3.696575   -1.445643   -0.160380
     18          1           0        4.925183   -0.048847   -0.180005
     19          6           0        0.490508    1.317452    0.092779
     20          1           0        0.873168    2.347317    0.088189
 ---------------------------------------------------------------------
 Rotational constants (GHZ):      4.5456902      0.6861959      0.6007300
 Leave Link  202 at Mon Sep  1 17:06:30 2014, MaxMem=   131072000 cpu:         0.0
 (Enter /usr/local/gaussian-2009-D.01_intel_sse4.2/g09/l301.exe)
 Standard basis: STO-3G (5D, 7F)
 Ernie: Thresh=  0.10000D-02 Tol=  0.10000D-05 Strict=F.
 There are    60 symmetry adapted cartesian basis functions of A   symmetry.
 There are    60 symmetry adapted basis functions of A   symmetry.
    60 basis functions,   180 primitive gaussians,    60 cartesian basis functions
    35 alpha electrons       35 beta electrons
       nuclear repulsion energy       445.8723112313 Hartrees.
 IExCor=  402 DFT=T Ex+Corr=B3LYP ExCW=0 ScaHFX=  0.200000
 ScaDFX=  0.800000  0.720000  1.000000  0.810000 ScalE2=  1.000000  1.000000
 IRadAn=      0 IRanWt=     -1 IRanGd=            0 ICorTp=0 IEmpDi=  4
 NAtoms=   20 NActive=   20 NUniq=   20 SFac= 1.00D+00 NAtFMM=   60 NAOKFM=F Big=F
 Integral buffers will be    131072 words long.
 Raffenetti 2 integral format.
 Two-electron integral symmetry is turned on.
 Leave Link  301 at Mon Sep  1 17:06:30 2014, MaxMem=   131072000 cpu:         0.0
 (Enter /usr/local/gaussian-2009-D.01_intel_sse4.2/g09/l302.exe)
 NPDir=0 NMtPBC=     1 NCelOv=     1 NCel=       1 NClECP=     1 NCelD=      1
         NCelK=      1 NCelE2=     1 NClLst=     1 CellRange=     0.0.
 One-electron integrals computed using PRISM.
 NBasis=    60 RedAO= T EigKep=  1.81D-01  NBF=    60
 NBsUse=    60 1.00D-06 EigRej= -1.00D+00 NBFU=    60
 Precomputing XC quadrature grid using
 IXCGrd= 4 IRadAn=           0 IRanWt=          -1 IRanGd=           0 AccXCQ= 0.00D+00.
 Generated NRdTot=       0 NPtTot=           0 NUsed=           0 NTot=          32
 NSgBfM=    59    59    59    59    59 MxSgAt=    20 MxSgA2=    20.
 Leave Link  302 at Mon Sep  1 17:06:30 2014, MaxMem=   131072000 cpu:         0.3
 (Enter /usr/local/gaussian-2009-D.01_intel_sse4.2/g09/l303.exe)
 DipDrv:  MaxL=1.
 Leave Link  303 at Mon Sep  1 17:06:30 2014, MaxMem=   131072000 cpu:         0.0
 (Enter /usr/local/gaussian-2009-D.01_intel_sse4.2/g09/l401.exe)
 Initial guess from the checkpoint file:  "PhCCCC.chk"
 B after Tr=     0.000000    0.000000    0.000000
         Rot=    0.715143    0.001102   -0.000873   -0.698977 Ang=  88.69 deg.
 Guess basis will be translated and rotated to current coordinates.
 JPrj=2 DoOrth=T DoCkMO=T.
 Generating alternative initial guess.
 ExpMin= 1.69D-01 ExpMax= 7.16D+01 ExpMxC= 7.16D+01 IAcc=1 IRadAn=         1 AccDes= 0.00D+00
 Harris functional with IExCor=  402 and IRadAn=       1 diagonalized for initial guess.
 HarFok:  IExCor=  402 AccDes= 0.00D+00 IRadAn=         1 IDoV= 1 UseB2=F ITyADJ=14
 ICtDFT=  3500011 ScaDFX=  1.000000  1.000000  1.000000  1.000000
 FoFCou: FMM=F IPFlag=           0 FMFlag=      100000 FMFlg1=           0
         NFxFlg=           0 DoJE=T BraDBF=F KetDBF=T FulRan=T
         wScrn=  0.000000 ICntrl=     500 IOpCl=  0 I1Cent=   200000004 NGrid=           0
         NMat0=    1 NMatS0=      1 NMatT0=    0 NMatD0=    1 NMtDS0=    0 NMtDT0=    0
 Petite list used in FoFCou.
 Harris En= -382.202679592496    
 Leave Link  401 at Mon Sep  1 17:06:31 2014, MaxMem=   131072000 cpu:         0.7
 (Enter /usr/local/gaussian-2009-D.01_intel_sse4.2/g09/l502.exe)
 Closed shell SCF:
 Using DIIS extrapolation, IDIIS=  1040.
[...]
           D23         -3.44684  -2.71304  -0.02608
           D24        177.09772 178.04117-180.02385
           D25        120.00004 150.00011 179.99991
           D26        -53.86130 -25.40634   0.02392
           D27        -55.61134 -27.65087   0.04494
           D28        130.52732 156.94268 180.06896
           D29         -0.87934  -0.38332  -0.00525
           D30        179.32750 179.48640-180.00520
           D31        179.66807-179.62798 179.99698
           D32         -0.12509   0.24174  -0.00297
           D33          3.80521   2.38559   0.00204
           D34       -177.13817-177.96493-180.01663
           D35        177.45661 177.61624-180.02295
           D36         -3.48676  -2.73427  -0.04162
           D37          0.00509   0.04077   0.01106
           D38       -179.99003-179.95939 180.01566
           D39       -179.96954-179.98218 180.01229
           D40          0.03533   0.01766   0.01689
 Largest change from initial coordinates is atom   13       3.502 Angstoms.
 Leave Link  103 at Mon Sep  1 17:22:11 2014, MaxMem=   131072000 cpu:         0.0
 (Enter /usr/local/gaussian-2009-D.01_intel_sse4.2/g09/l202.exe)
                          Input orientation:                          
 ---------------------------------------------------------------------
 Center     Atomic      Atomic             Coordinates (Angstroms)
 Number     Number       Type             X           Y           Z
 ---------------------------------------------------------------------
      1          6           0        0.182003   -1.414178    0.168713
      2          6           0       -0.511531   -0.895255   -0.957916
      3          6           0       -0.687822    0.486283   -1.120257
      4          6           0       -0.181584    1.414068   -0.168177
      5          6           0        0.511611    0.894933    0.958646
      6          1           0       -0.915467   -1.582234   -1.712740
      7          1           0       -1.227238    0.865212   -1.999165
      8          1           0        0.915467    1.581763    1.713510
      9          6           0       -0.398575    2.879217   -0.390242
     10          6           0        0.012218    3.880540    0.407150
     11          1           0        0.569039    3.707021    1.335061
     12          1           0       -0.954163    3.123044   -1.308274
     13          1           0       -0.195939    4.927491    0.157784
     14          6           0        0.398349   -2.879268    0.390201
     15          1           0        0.952682   -3.123822    1.308831
     16          6           0       -0.012075   -3.879853   -0.408217
     17          1           0       -0.567813   -3.705673   -1.336673
     18          1           0        0.195583   -4.927031   -0.159188
     19          6           0        0.687981   -0.486607    1.121003
     20          1           0        1.227272   -0.865650    1.999949
 ---------------------------------------------------------------------
                    Distance matrix (angstroms):
                    1          2          3          4          5
     1  C    0.000000
     2  C    1.421114   0.000000
     3  C    2.455564   1.402170   0.000000
     4  C    2.871353   2.462828   1.422504   0.000000
     5  C    2.462647   2.815103   2.434640   1.421179   0.000000
     6  H    2.184616   1.097663   2.163705   3.449940   3.912699
     7  H    3.446923   2.166951   1.098652   2.178796   3.431199
     8  H    3.449643   3.912603   3.435237   2.184580   1.097568
     9  C    4.368380   3.818593   2.518476   1.497685   2.566188
    10  C    5.302803   4.994590   3.787348   2.540088   3.076912
    11  H    5.266578   5.254171   4.240453   2.842674   2.837749
    12  H    4.904972   4.057757   2.656839   2.194834   3.500270
    13  H    6.352931   5.937066   4.647544   3.528541   4.171754
    14  C    1.497448   2.565465   3.845541   4.368162   3.818450
    15  H    2.194697   3.499797   4.650224   4.905156   4.058025
    16  C    2.539698   3.075623   4.475129   5.302070   4.994111
    17  H    2.842421   2.836384   4.199254   5.265577   5.253496
    18  H    3.528149   4.170515   5.568485   6.352312   5.936724
    19  C    1.422413   2.434693   2.804032   2.455747   1.402184
    20  H    2.178737   3.431221   3.902690   3.447137   2.167057
                    6          7          8          9         10
     6  H    0.000000
     7  H    2.483794   0.000000
     8  H    5.010229   4.346101   0.000000
     9  C    4.681957   2.707681   2.799262   0.000000
    10  C    5.932658   4.052013   2.794067   1.344333   0.000000
    11  H    6.282441   4.734930   2.186311   2.144343   1.095983
    12  H    4.722788   2.376911   3.873273   1.100414   2.109590
    13  H    6.811248   4.713610   3.853492   2.129981   1.096184
    14  C    2.798352   4.729983   4.681812   5.865521   6.770849
    15  H    3.872515   5.622035   4.723101   6.383512   7.124506
    16  C    2.792302   5.150085   5.932227   6.770136   7.803148
    17  H    2.184327   4.665482   6.281777   6.654709   7.805638
    18  H    3.851704   6.241796   6.810994   7.832236   8.827665
    19  C    3.435338   3.902683   2.163555   3.846198   4.476407
    20  H    4.346134   5.001341   2.483767   4.730794   5.151668
                   11         12         13         14         15
    11  H    0.000000
    12  H    3.106186   0.000000
    13  H    1.860301   2.445457   0.000000
    14  C    6.655907   6.382935   7.832796   0.000000
    15  H    6.841658   7.036237   8.213883   1.100442   0.000000
    16  C    7.806239   7.123075   8.827428   1.344280   2.109643
    17  H    7.961069   6.839696   8.769448   2.144413   3.106308
    18  H    8.770353   8.212552   9.867389   2.129853   2.445372
    19  C    4.200772   4.650549   5.569701   2.518489   2.657112
    20  H    4.667404   5.622514   6.243363   2.707963   2.377474
                   16         17         18         19         20
    16  C    0.000000
    17  H    1.095999   0.000000
    18  H    1.096229   1.860365   0.000000
    19  C    3.787177   4.240233   4.647441   0.000000
    20  H    4.052242   4.735093   4.713923   1.098659   0.000000
 Stoichiometry    C10H10
 Framework group  C1[X(C10H10)]
 Deg. of freedom    54
 Full point group                 C1      NOp   1
 RotChk:  IX=0 Diff= 1.23D-15
 Largest Abelian subgroup         C1      NOp   1
 Largest concise Abelian subgroup C1      NOp   1
                         Standard orientation:                         
 ---------------------------------------------------------------------
 Center     Atomic      Atomic             Coordinates (Angstroms)
 Number     Number       Type             X           Y           Z
 ---------------------------------------------------------------------
      1          6           0        1.415245    0.241887    0.000199
      2          6           0        0.899630   -1.082388    0.000322
      3          6           0       -0.482965   -1.315865    0.000085
      4          6           0       -1.415149   -0.241366   -0.000278
      5          6           0       -0.899343    1.082906    0.000000
      6          1           0        1.590051   -1.935724    0.000379
      7          1           0       -0.859277   -2.348060    0.000089
      8          1           0       -1.589620    1.936236    0.000039
      9          6           0       -2.881274   -0.547208    0.000046
     10          6           0       -3.886549    0.345346   -0.000224
     11          1           0       -3.716033    1.427983   -0.000762
     12          1           0       -3.122233   -1.620917    0.000976
     13          1           0       -4.933869    0.021713   -0.000218
     14          6           0        2.881299    0.546906    0.000135
     15          1           0        3.122915    1.620495    0.000624
     16          6           0        3.885882   -0.346349   -0.000470
     17          1           0        3.714768   -1.428907   -0.001174
     18          1           0        4.933417   -0.023258   -0.000206
     19          6           0        0.483257    1.316437    0.000177
     20          1           0        0.859677    2.348600    0.000304
 ---------------------------------------------------------------------
 Rotational constants (GHZ):      4.6269310      0.6848599      0.5965595
 Leave Link  202 at Mon Sep  1 17:22:12 2014, MaxMem=   131072000 cpu:         0.0
 (Enter /usr/local/gaussian-2009-D.01_intel_sse4.2/g09/l601.exe)
 Copying SCF densities to generalized density rwf, IOpCl= 0 IROHF=0.

 **********************************************************************

            Population analysis using the SCF density.

 **********************************************************************

 Orbital symmetries:
       Occupied  (A) (A) (A) (A) (A) (A) (A) (A) (A) (A) (A) (A)
                 (A) (A) (A) (A) (A) (A) (A) (A) (A) (A) (A) (A)
                 (A) (A) (A) (A) (A) (A) (A) (A) (A) (A) (A)
       Virtual   (A) (A) (A) (A) (A) (A) (A) (A) (A) (A) (A) (A)
                 (A) (A) (A) (A) (A) (A) (A) (A) (A) (A) (A) (A)
                 (A)
 The electronic state is 1-A.
 Alpha  occ. eigenvalues --  -10.02022 -10.02017 -10.00812 -10.00811 -10.00680
 Alpha  occ. eigenvalues --  -10.00678 -10.00606 -10.00592  -9.99233  -9.99233
 Alpha  occ. eigenvalues --   -0.80951  -0.75398  -0.71796  -0.69978  -0.66752
 Alpha  occ. eigenvalues --   -0.58869  -0.55893  -0.53167  -0.51017  -0.45744
 Alpha  occ. eigenvalues --   -0.43935  -0.41061  -0.39795  -0.39607  -0.37396
 Alpha  occ. eigenvalues --   -0.35115  -0.34729  -0.32451  -0.31126  -0.29280
 Alpha  occ. eigenvalues --   -0.28745  -0.26355  -0.21244  -0.19505  -0.15309
 Alpha virt. eigenvalues --    0.03741   0.09036   0.11060   0.18220   0.27253
 Alpha virt. eigenvalues --    0.33223   0.34074   0.37937   0.38146   0.41098
 Alpha virt. eigenvalues --    0.41198   0.42675   0.43965   0.45274   0.47823
 Alpha virt. eigenvalues --    0.52627   0.54581   0.57598   0.59942   0.62502
 Alpha virt. eigenvalues --    0.63965   0.68284   0.71719   0.77954   0.79458
          Condensed to atoms (all electrons):
               1          2          3          4          5          6
     1  C    4.778652   0.488322  -0.027153  -0.009772  -0.026986  -0.024573
     2  C    0.488322   4.810702   0.508966  -0.026972  -0.010508   0.387877
     3  C   -0.027153   0.508966   4.815085   0.488771  -0.030724  -0.025263
     4  C   -0.009772  -0.026972   0.488771   4.778707   0.488313   0.001330
     5  C   -0.026986  -0.010508  -0.030724   0.488313   4.810680   0.000032
     6  H   -0.024573   0.387877  -0.025263   0.001330   0.000032   0.586999
     7  H    0.001335  -0.025217   0.387923  -0.025296   0.001342  -0.003826
     8  H    0.001331   0.000032   0.001347  -0.024576   0.387883   0.000002
     9  C    0.000015   0.000818  -0.028769   0.411846  -0.024048  -0.000015
    10  C    0.000000  -0.000007   0.000680  -0.023773  -0.003952   0.000000
    11  H    0.000000   0.000000   0.000012  -0.003527  -0.000557   0.000000
    12  H   -0.000001   0.000022  -0.003964  -0.026067   0.001085  -0.000002
    13  H    0.000000   0.000000  -0.000016   0.001319   0.000018   0.000000
    14  C    0.411905  -0.024089   0.000750   0.000016   0.000818  -0.003045
    15  H   -0.026074   0.001087  -0.000017  -0.000001   0.000022   0.000019
    16  C   -0.023792  -0.003973   0.000015   0.000000  -0.000007  -0.000608
    17  H   -0.003529  -0.000564  -0.000012   0.000000   0.000000   0.000563
    18  H    0.001320   0.000018   0.000000   0.000000   0.000000  -0.000017
    19  C    0.488816  -0.030715  -0.011068  -0.027136   0.508958   0.001347
    20  H   -0.025298   0.001343   0.000039   0.001334  -0.025208  -0.000034
               7          8          9         10         11         12
     1  C    0.001335   0.001331   0.000015   0.000000   0.000000  -0.000001
     2  C   -0.025217   0.000032   0.000818  -0.000007   0.000000   0.000022
     3  C    0.387923   0.001347  -0.028769   0.000680   0.000012  -0.003964
     4  C   -0.025296  -0.024576   0.411846  -0.023773  -0.003527  -0.026067
     5  C    0.001342   0.387883  -0.024048  -0.003952  -0.000557   0.001085
     6  H   -0.003826   0.000002  -0.000015   0.000000   0.000000  -0.000002
     7  H    0.588900  -0.000034  -0.003903   0.000029   0.000001   0.001033
     8  H   -0.000034   0.586983  -0.003037  -0.000601   0.000562   0.000019
     9  C   -0.003903  -0.003037   4.798274   0.586060  -0.023813   0.386252
    10  C    0.000029  -0.000601   0.586060   4.849829   0.385946  -0.027674
    11  H    0.000001   0.000562  -0.023813   0.385946   0.586745   0.002045
    12  H    0.001033   0.000019   0.386252  -0.027674   0.002045   0.595479
    13  H   -0.000002  -0.000017  -0.024043   0.388277  -0.023730  -0.005093
    14  C   -0.000014  -0.000015   0.000000   0.000000   0.000000   0.000000
    15  H    0.000000  -0.000002   0.000000   0.000000   0.000000   0.000000
    16  C    0.000000   0.000000   0.000000   0.000000   0.000000   0.000000
    17  H    0.000002   0.000000   0.000000   0.000000   0.000000   0.000000
    18  H    0.000000   0.000000   0.000000   0.000000   0.000000   0.000000
    19  C    0.000039  -0.025272   0.000748   0.000015  -0.000012  -0.000017
    20  H    0.000002  -0.003826  -0.000014   0.000000   0.000002   0.000000
              13         14         15         16         17         18
     1  C    0.000000   0.411905  -0.026074  -0.023792  -0.003529   0.001320
     2  C    0.000000  -0.024089   0.001087  -0.003973  -0.000564   0.000018
     3  C   -0.000016   0.000750  -0.000017   0.000015  -0.000012   0.000000
     4  C    0.001319   0.000016  -0.000001   0.000000   0.000000   0.000000
     5  C    0.000018   0.000818   0.000022  -0.000007   0.000000   0.000000
     6  H    0.000000  -0.003045   0.000019  -0.000608   0.000563  -0.000017
     7  H   -0.000002  -0.000014   0.000000   0.000000   0.000002   0.000000
     8  H   -0.000017  -0.000015  -0.000002   0.000000   0.000000   0.000000
     9  C   -0.024043   0.000000   0.000000   0.000000   0.000000   0.000000
    10  C    0.388277   0.000000   0.000000   0.000000   0.000000   0.000000
    11  H   -0.023730   0.000000   0.000000   0.000000   0.000000   0.000000
    12  H   -0.005093   0.000000   0.000000   0.000000   0.000000   0.000000
    13  H    0.583931   0.000000   0.000000   0.000000   0.000000   0.000000
    14  C    0.000000   4.798240   0.386250   0.586087  -0.023807  -0.024053
    15  H    0.000000   0.386250   0.595484  -0.027666   0.002044  -0.005095
    16  C    0.000000   0.586087  -0.027666   4.849828   0.385949   0.388267
    17  H    0.000000  -0.023807   0.002044   0.385949   0.586742  -0.023728
    18  H    0.000000  -0.024053  -0.005095   0.388267  -0.023728   0.583965
    19  C    0.000000  -0.028762  -0.003962   0.000680   0.000012  -0.000016
    20  H    0.000000  -0.003900   0.001033   0.000029   0.000001  -0.000002
              19         20
     1  C    0.488816  -0.025298
     2  C   -0.030715   0.001343
     3  C   -0.011068   0.000039
     4  C   -0.027136   0.001334
     5  C    0.508958  -0.025208
     6  H    0.001347  -0.000034
     7  H    0.000039   0.000002
     8  H   -0.025272  -0.003826
     9  C    0.000748  -0.000014
    10  C    0.000015   0.000000
    11  H   -0.000012   0.000002
    12  H   -0.000017   0.000000
    13  H    0.000000   0.000000
    14  C   -0.028762  -0.003900
    15  H   -0.003962   0.001033
    16  C    0.000680   0.000029
    17  H    0.000012   0.000001
    18  H   -0.000016  -0.000002
    19  C    4.815032   0.387927
    20  H    0.387927   0.588866
 Mulliken charges:
               1
     1  C   -0.004519
     2  C   -0.077140
     3  C   -0.076603
     4  C   -0.004513
     5  C   -0.077160
     6  H    0.079213
     7  H    0.077685
     8  H    0.079221
     9  C   -0.076371
    10  C   -0.154829
    11  H    0.076327
    12  H    0.076883
    13  H    0.079356
    14  C   -0.076379
    15  H    0.076877
    16  C   -0.154809
    17  H    0.076327
    18  H    0.079342
    19  C   -0.076614
    20  H    0.077705
 Sum of Mulliken charges =   0.00000
 Mulliken charges with hydrogens summed into heavy atoms:
               1
     1  C   -0.004519
     2  C    0.002074
     3  C    0.001083
     4  C   -0.004513
     5  C    0.002061
     9  C    0.000512
    10  C    0.000854
    14  C    0.000498
    16  C    0.000859
    19  C    0.001091
 Electronic spatial extent (au):  <R**2>=           1861.8849
 Charge=              0.0000 electrons
 Dipole moment (field-independent basis, Debye):
    X=              0.0001    Y=             -0.0002    Z=              0.0002  Tot=              0.0003
 Quadrupole moment (field-independent basis, Debye-Ang):
   XX=            -50.7127   YY=            -50.2248   ZZ=            -58.6254
   XY=              0.0691   XZ=              0.0000   YZ=             -0.0001
 Traceless Quadrupole moment (field-independent basis, Debye-Ang):
   XX=              2.4749   YY=              2.9628   ZZ=             -5.4377
   XY=              0.0691   XZ=              0.0000   YZ=             -0.0001
 Octapole moment (field-independent basis, Debye-Ang**2):
  XXX=             -0.0097  YYY=              0.0012  ZZZ=              0.0001  XYY=              0.0023
  XXY=             -0.0027  XXZ=              0.0005  XZZ=              0.0004  YZZ=              0.0000
  YYZ=              0.0014  XYZ=              0.0076
 Hexadecapole moment (field-independent basis, Debye-Ang**3):
 XXXX=          -1862.2426 YYYY=           -329.5818 ZZZZ=            -47.6115 XXXY=              6.8361
 XXXZ=              0.0087 YYYX=              1.3801 YYYZ=              0.0001 ZZZX=              0.0003
 ZZZY=              0.0001 XXYY=           -367.9664 XXZZ=           -367.6896 YYZZ=            -72.1393
 XXYZ=             -0.0021 YYXZ=             -0.0028 ZZXY=             -0.0206
 N-N= 4.458906781589D+02 E-N=-1.776397144428D+03  KE= 3.758472128247D+02
 No NMR shielding tensors so no spin-rotation constants.
 Leave Link  601 at Mon Sep  1 17:22:12 2014, MaxMem=   131072000 cpu:         0.1
 (Enter /usr/local/gaussian-2009-D.01_intel_sse4.2/g09/l9999.exe)
 1\1\ WCSS.WROC.PL-SUPERNOVA-WN532\Scan\RB3LYP\STO-3G\C10H10\LANGNER\01
 -Sep-2014\0\\#p b3lyp/sto-3g opt=modredundant\\DVB scan dihedral\\0,1\
 C,0.182002842,-1.4141784342,0.1687131238\C,-0.5115311144,-0.8952547002
 ,-0.9579162246\C,-0.687822129,0.4862830817,-1.1202568125\C,-0.18158384
 99,1.4140676986,-0.16817705\C,0.5116110419,0.8949333293,0.9586460103\H
 ,-0.9154670092,-1.5822338758,-1.7127401239\H,-1.2272380685,0.865211713
 2,-1.999165427\H,0.9154674406,1.5817630964,1.7135103043\C,-0.398574954
 4,2.8792172521,-0.3902415908\C,0.0122176925,3.88053996,0.4071498357\H,
 0.5690392006,3.7070206246,1.3350613796\H,-0.9541626876,3.1230437363,-1
 .3082736308\H,-0.1959385174,4.9274911609,0.1577839493\C,0.3983492314,-
 2.8792683931,0.390201007\H,0.9526823272,-3.1238217979,1.3088312149\C,-
 0.0120747034,-3.8798532153,-0.4082173775\H,-0.5678127663,-3.7056731516
 ,-1.3366726664\H,0.195582927,-4.9270310151,-0.1591879274\C,0.687980941
 4,-0.4866074427,1.1210034395\H,1.2272721554,-0.8656496272,1.9999485665
 \\Version=ES64L-G09RevD.01\State=1-A\HF=-382.3082666,-382.3069469,-382
 .3026498,-382.2995559,-382.3026026,-382.3069515,-382.3082802,-382.3069
 513,-382.3026027,-382.2995559,-382.3026498,-382.3069469,-382.3082596\R
 MSD=3.569e-09,4.185e-09,4.026e-09,4.347e-09,8.823e-09,2.594e-09,9.171e
 -09,5.174e-09,7.938e-09,5.289e-09,4.182e-09,6.209e-09,4.492e-09\PG=C01
  [X(C10H10)]\\@


 FOR THE NATURE OF THE CHEMICAL BOND
 IS THE PROBLEM AT THE HEART OF ALL CHEMISTRY.

                     -- BRYCE CRAWFORD, JR., 1953
 Job cpu time:       0 days  0 hours 15 minutes 26.0 seconds.
 File lengths (MBytes):  RWF=      6 Int=      0 D2E=      0 Chk=      4 Scr=      1
 Normal termination of Gaussian 09 at Mon Sep  1 17:22:12 2014.
