DVB scan dihedral                                                       
Scan      RB3LYP                                                      STO-3G              
Number of atoms                            I               20
Info1-9                                    I   N=           9
          31          31           0           0           0         110
           8          18        -502
Charge                                     I                0
Multiplicity                               I                1
Number of electrons                        I               70
Number of alpha electrons                  I               35
Number of beta electrons                   I               35
Number of basis functions                  I               60
Number of independent functions            I               60
Number of point charges in /Mol/           I                0
Number of translation vectors              I                0
Atomic numbers                             I   N=          20
           6           6           6           6           6           1
           1           1           6           6           1           1
           1           6           1           6           1           1
           6           1
Nuclear charges                            R   N=          20
  6.00000000E+00  6.00000000E+00  6.00000000E+00  6.00000000E+00  6.00000000E+00
  1.00000000E+00  1.00000000E+00  1.00000000E+00  6.00000000E+00  6.00000000E+00
  1.00000000E+00  1.00000000E+00  1.00000000E+00  6.00000000E+00  1.00000000E+00
  6.00000000E+00  1.00000000E+00  1.00000000E+00  6.00000000E+00  1.00000000E+00
Current cartesian coordinates              R   N=          60
 -2.67419589E+00  4.56824236E-01  6.15625464E-05 -1.69996670E+00 -2.04587703E+00
 -1.84542507E-04  9.12764784E-01 -2.48729245E+00 -1.05385359E-04  2.67416085E+00
 -4.56768197E-01 -1.32316437E-04  1.69988787E+00  2.04596729E+00 -1.90980109E-04
 -3.00459964E+00 -3.65838794E+00 -9.87124809E-05  1.62396284E+00 -4.43784105E+00
 -6.24595327E-05  3.00459598E+00  3.65841034E+00 -2.20193438E-04  5.44463608E+00
 -1.03385307E+00  1.27950601E-04  7.34361909E+00  6.53491683E-01  1.35560178E-04
  7.02079617E+00  2.69924893E+00 -6.86870789E-05  5.90053105E+00 -3.06276583E+00
  2.59457139E-04  9.32299801E+00  4.24024392E-02  5.35982900E-04 -5.44468645E+00
  1.03389907E+00  1.25077082E-04 -5.90080099E+00  3.06277722E+00  2.65274191E-04
 -7.34345463E+00 -6.53682329E-01  9.56260549E-05 -7.02036559E+00 -2.69942894E+00
  8.77446355E-05 -9.32293303E+00 -4.28742087E-02  2.23767424E-04 -9.12780622E-01
  2.48738461E+00 -5.90818503E-05 -1.62409114E+00  4.43789611E+00 -1.62994960E-04
Force Field                                I                0
Int Atom Types                             I   N=          20
           0           0           0           0           0           0
           0           0           0           0           0           0
           0           0           0           0           0           0
           0           0
MM charges                                 R   N=          20
  0.00000000E+00  0.00000000E+00  0.00000000E+00  0.00000000E+00  0.00000000E+00
  0.00000000E+00  0.00000000E+00  0.00000000E+00  0.00000000E+00  0.00000000E+00
  0.00000000E+00  0.00000000E+00  0.00000000E+00  0.00000000E+00  0.00000000E+00
  0.00000000E+00  0.00000000E+00  0.00000000E+00  0.00000000E+00  0.00000000E+00
Integer atomic weights                     I   N=          20
          12          12          12          12          12           1
           1           1          12          12           1           1
           1          12           1          12           1           1
          12           1
Real atomic weights                        R   N=          20
  1.20000000E+01  1.20000000E+01  1.20000000E+01  1.20000000E+01  1.20000000E+01
  1.00782504E+00  1.00782504E+00  1.00782504E+00  1.20000000E+01  1.20000000E+01
  1.00782504E+00  1.00782504E+00  1.00782504E+00  1.20000000E+01  1.00782504E+00
  1.20000000E+01  1.00782504E+00  1.00782504E+00  1.20000000E+01  1.00782504E+00
Atom fragment info                         I   N=          20
           0           0           0           0           0           0
           0           0           0           0           0           0
           0           0           0           0           0           0
           0           0
Atom residue num                           I   N=          20
           0           0           0           0           0           0
           0           0           0           0           0           0
           0           0           0           0           0           0
           0           0
Nuclear spins                              I   N=          20
           0           0           0           0           0           1
           1           1           0           0           1           1
           1           0           1           0           1           1
           0           1
Nuclear ZEff                               R   N=          20
 -3.60000000E+00 -3.60000000E+00 -3.60000000E+00 -3.60000000E+00 -3.60000000E+00
 -1.00000000E+00 -1.00000000E+00 -1.00000000E+00 -3.60000000E+00 -3.60000000E+00
 -1.00000000E+00 -1.00000000E+00 -1.00000000E+00 -3.60000000E+00 -1.00000000E+00
 -3.60000000E+00 -1.00000000E+00 -1.00000000E+00 -3.60000000E+00 -1.00000000E+00
Nuclear QMom                               R   N=          20
  0.00000000E+00  0.00000000E+00  0.00000000E+00  0.00000000E+00  0.00000000E+00
  0.00000000E+00  0.00000000E+00  0.00000000E+00  0.00000000E+00  0.00000000E+00
  0.00000000E+00  0.00000000E+00  0.00000000E+00  0.00000000E+00  0.00000000E+00
  0.00000000E+00  0.00000000E+00  0.00000000E+00  0.00000000E+00  0.00000000E+00
Nuclear GFac                               R   N=          20
  0.00000000E+00  0.00000000E+00  0.00000000E+00  0.00000000E+00  0.00000000E+00
  2.79284600E+00  2.79284600E+00  2.79284600E+00  0.00000000E+00  0.00000000E+00
  2.79284600E+00  2.79284600E+00  2.79284600E+00  0.00000000E+00  2.79284600E+00
  0.00000000E+00  2.79284600E+00  2.79284600E+00  0.00000000E+00  2.79284600E+00
MicOpt                                     I   N=          20
          -1          -1          -1          -1          -1          -1
          -1          -1          -1          -1          -1          -1
          -1          -1          -1          -1          -1          -1
          -1          -1
Number of contracted shells                I               30
Number of primitive shells                 I               90
Pure/Cartesian d shells                    I                0
Pure/Cartesian f shells                    I                0
Highest angular momentum                   I                1
Largest degree of contraction              I                3
Shell types                                I   N=          30
           0          -1           0          -1           0          -1
           0          -1           0          -1           0           0
           0           0          -1           0          -1           0
           0           0           0          -1           0           0
          -1           0           0           0          -1           0
Number of primitives per shell             I   N=          30
           3           3           3           3           3           3
           3           3           3           3           3           3
           3           3           3           3           3           3
           3           3           3           3           3           3
           3           3           3           3           3           3
Shell to atom map                          I   N=          30
           1           1           2           2           3           3
           4           4           5           5           6           7
           8           9           9          10          10          11
          12          13          14          14          15          16
          16          17          18          19          19          20
Primitive exponents                        R   N=          90
  7.16168373E+01  1.30450963E+01  3.53051216E+00  2.94124936E+00  6.83483096E-01
  2.22289916E-01  7.16168373E+01  1.30450963E+01  3.53051216E+00  2.94124936E+00
  6.83483096E-01  2.22289916E-01  7.16168373E+01  1.30450963E+01  3.53051216E+00
  2.94124936E+00  6.83483096E-01  2.22289916E-01  7.16168373E+01  1.30450963E+01
  3.53051216E+00  2.94124936E+00  6.83483096E-01  2.22289916E-01  7.16168373E+01
  1.30450963E+01  3.53051216E+00  2.94124936E+00  6.83483096E-01  2.22289916E-01
  3.42525091E+00  6.23913730E-01  1.68855404E-01  3.42525091E+00  6.23913730E-01
  1.68855404E-01  3.42525091E+00  6.23913730E-01  1.68855404E-01  7.16168373E+01
  1.30450963E+01  3.53051216E+00  2.94124936E+00  6.83483096E-01  2.22289916E-01
  7.16168373E+01  1.30450963E+01  3.53051216E+00  2.94124936E+00  6.83483096E-01
  2.22289916E-01  3.42525091E+00  6.23913730E-01  1.68855404E-01  3.42525091E+00
  6.23913730E-01  1.68855404E-01  3.42525091E+00  6.23913730E-01  1.68855404E-01
  7.16168373E+01  1.30450963E+01  3.53051216E+00  2.94124936E+00  6.83483096E-01
  2.22289916E-01  3.42525091E+00  6.23913730E-01  1.68855404E-01  7.16168373E+01
  1.30450963E+01  3.53051216E+00  2.94124936E+00  6.83483096E-01  2.22289916E-01
  3.42525091E+00  6.23913730E-01  1.68855404E-01  3.42525091E+00  6.23913730E-01
  1.68855404E-01  7.16168373E+01  1.30450963E+01  3.53051216E+00  2.94124936E+00
  6.83483096E-01  2.22289916E-01  3.42525091E+00  6.23913730E-01  1.68855404E-01
Contraction coefficients                   R   N=          90
  1.54328967E-01  5.35328142E-01  4.44634542E-01 -9.99672292E-02  3.99512826E-01
  7.00115469E-01  1.54328967E-01  5.35328142E-01  4.44634542E-01 -9.99672292E-02
  3.99512826E-01  7.00115469E-01  1.54328967E-01  5.35328142E-01  4.44634542E-01
 -9.99672292E-02  3.99512826E-01  7.00115469E-01  1.54328967E-01  5.35328142E-01
  4.44634542E-01 -9.99672292E-02  3.99512826E-01  7.00115469E-01  1.54328967E-01
  5.35328142E-01  4.44634542E-01 -9.99672292E-02  3.99512826E-01  7.00115469E-01
  1.54328967E-01  5.35328142E-01  4.44634542E-01  1.54328967E-01  5.35328142E-01
  4.44634542E-01  1.54328967E-01  5.35328142E-01  4.44634542E-01  1.54328967E-01
  5.35328142E-01  4.44634542E-01 -9.99672292E-02  3.99512826E-01  7.00115469E-01
  1.54328967E-01  5.35328142E-01  4.44634542E-01 -9.99672292E-02  3.99512826E-01
  7.00115469E-01  1.54328967E-01  5.35328142E-01  4.44634542E-01  1.54328967E-01
  5.35328142E-01  4.44634542E-01  1.54328967E-01  5.35328142E-01  4.44634542E-01
  1.54328967E-01  5.35328142E-01  4.44634542E-01 -9.99672292E-02  3.99512826E-01
  7.00115469E-01  1.54328967E-01  5.35328142E-01  4.44634542E-01  1.54328967E-01
  5.35328142E-01  4.44634542E-01 -9.99672292E-02  3.99512826E-01  7.00115469E-01
  1.54328967E-01  5.35328142E-01  4.44634542E-01  1.54328967E-01  5.35328142E-01
  4.44634542E-01  1.54328967E-01  5.35328142E-01  4.44634542E-01 -9.99672292E-02
  3.99512826E-01  7.00115469E-01  1.54328967E-01  5.35328142E-01  4.44634542E-01
P(S=P) Contraction coefficients            R   N=          90
  0.00000000E+00  0.00000000E+00  0.00000000E+00  1.55916275E-01  6.07683719E-01
  3.91957393E-01  0.00000000E+00  0.00000000E+00  0.00000000E+00  1.55916275E-01
  6.07683719E-01  3.91957393E-01  0.00000000E+00  0.00000000E+00  0.00000000E+00
  1.55916275E-01  6.07683719E-01  3.91957393E-01  0.00000000E+00  0.00000000E+00
  0.00000000E+00  1.55916275E-01  6.07683719E-01  3.91957393E-01  0.00000000E+00
  0.00000000E+00  0.00000000E+00  1.55916275E-01  6.07683719E-01  3.91957393E-01
  0.00000000E+00  0.00000000E+00  0.00000000E+00  0.00000000E+00  0.00000000E+00
  0.00000000E+00  0.00000000E+00  0.00000000E+00  0.00000000E+00  0.00000000E+00
  0.00000000E+00  0.00000000E+00  1.55916275E-01  6.07683719E-01  3.91957393E-01
  0.00000000E+00  0.00000000E+00  0.00000000E+00  1.55916275E-01  6.07683719E-01
  3.91957393E-01  0.00000000E+00  0.00000000E+00  0.00000000E+00  0.00000000E+00
  0.00000000E+00  0.00000000E+00  0.00000000E+00  0.00000000E+00  0.00000000E+00
  0.00000000E+00  0.00000000E+00  0.00000000E+00  1.55916275E-01  6.07683719E-01
  3.91957393E-01  0.00000000E+00  0.00000000E+00  0.00000000E+00  0.00000000E+00
  0.00000000E+00  0.00000000E+00  1.55916275E-01  6.07683719E-01  3.91957393E-01
  0.00000000E+00  0.00000000E+00  0.00000000E+00  0.00000000E+00  0.00000000E+00
  0.00000000E+00  0.00000000E+00  0.00000000E+00  0.00000000E+00  1.55916275E-01
  6.07683719E-01  3.91957393E-01  0.00000000E+00  0.00000000E+00  0.00000000E+00
Coordinates of each shell                  R   N=          90
 -2.67419589E+00  4.56824236E-01  6.15625464E-05 -2.67419589E+00  4.56824236E-01
  6.15625464E-05 -1.69996670E+00 -2.04587703E+00 -1.84542507E-04 -1.69996670E+00
 -2.04587703E+00 -1.84542507E-04  9.12764784E-01 -2.48729245E+00 -1.05385359E-04
  9.12764784E-01 -2.48729245E+00 -1.05385359E-04  2.67416085E+00 -4.56768197E-01
 -1.32316437E-04  2.67416085E+00 -4.56768197E-01 -1.32316437E-04  1.69988787E+00
  2.04596729E+00 -1.90980109E-04  1.69988787E+00  2.04596729E+00 -1.90980109E-04
 -3.00459964E+00 -3.65838794E+00 -9.87124809E-05  1.62396284E+00 -4.43784105E+00
 -6.24595327E-05  3.00459598E+00  3.65841034E+00 -2.20193438E-04  5.44463608E+00
 -1.03385307E+00  1.27950601E-04  5.44463608E+00 -1.03385307E+00  1.27950601E-04
  7.34361909E+00  6.53491683E-01  1.35560178E-04  7.34361909E+00  6.53491683E-01
  1.35560178E-04  7.02079617E+00  2.69924893E+00 -6.86870789E-05  5.90053105E+00
 -3.06276583E+00  2.59457139E-04  9.32299801E+00  4.24024392E-02  5.35982900E-04
 -5.44468645E+00  1.03389907E+00  1.25077082E-04 -5.44468645E+00  1.03389907E+00
  1.25077082E-04 -5.90080099E+00  3.06277722E+00  2.65274191E-04 -7.34345463E+00
 -6.53682329E-01  9.56260549E-05 -7.34345463E+00 -6.53682329E-01  9.56260549E-05
 -7.02036559E+00 -2.69942894E+00  8.77446355E-05 -9.32293303E+00 -4.28742087E-02
  2.23767424E-04 -9.12780622E-01  2.48738461E+00 -5.90818503E-05 -9.12780622E-01
  2.48738461E+00 -5.90818503E-05 -1.62409114E+00  4.43789611E+00 -1.62994960E-04
Constraint Structure                       R   N=          60
  5.09243398E-01 -2.66468392E+00  0.00000000E+00 -2.01208590E+00 -1.73987085E+00
  0.00000000E+00 -2.50469971E+00  8.63661535E-01  0.00000000E+00 -5.09243398E-01
  2.66468392E+00  0.00000000E+00  2.01208590E+00  1.73987085E+00  0.00000000E+00
 -3.59887004E+00 -3.07571825E+00  0.00000000E+00 -4.46876767E+00  1.53666860E+00
  0.00000000E+00  3.59887004E+00  3.07571825E+00  0.00000000E+00 -1.14088436E+00
  5.42336282E+00  0.00000000E+00  5.09243398E-01  7.35471962E+00  0.00000000E+00
  2.56090016E+00  7.07137409E+00  0.00000000E+00 -3.17833038E+00  5.83925375E+00
  0.00000000E+00 -1.39896426E-01  9.32196232E+00  0.00000000E+00  1.14088436E+00
 -5.42336282E+00  0.00000000E+00  3.17833038E+00 -5.83925375E+00  0.00000000E+00
 -5.09243398E-01 -7.35471962E+00  0.00000000E+00 -2.56090016E+00 -7.07137409E+00
  0.00000000E+00  1.39896426E-01 -9.32196232E+00  0.00000000E+00  2.50469971E+00
 -8.63661535E-01  0.00000000E+00  4.46876767E+00 -1.53666860E+00  0.00000000E+00
Num ILSW                                   I              100
ILSW                                       I   N=         100
           0           0           0           0           2           0
           0           0           0           0         402          -1
           0           0           0           0           0           0
           0           0           0           0           1           0
           1           0           0           0           0           0
           0           0      100000           0          -1           0
           0           0           0           0           0           0
           0           0           0           1           0           0
           0           0           1           0           0           0
           0           0           4          40           0           0
           0           0           5           0           0           0
           0           0           0           0           0           0
           0           0           0           0           0           0
           0           0           0           0           0           0
           0           0           0           0           0           0
           0           0           0           0           0           0
           0           0           0           0
Num RLSW                                   I               40
RLSW                                       R   N=          40
  8.00000000E-01  7.20000000E-01  1.00000000E+00  8.10000000E-01  2.00000000E-01
  0.00000000E+00  0.00000000E+00  1.00000000E+00  0.00000000E+00  0.00000000E+00
  0.00000000E+00  0.00000000E+00  1.00000000E+00  0.00000000E+00  0.00000000E+00
  0.00000000E+00  0.00000000E+00  1.00000000E+00  0.00000000E+00  0.00000000E+00
  0.00000000E+00  0.00000000E+00  1.00000000E+00  0.00000000E+00  0.00000000E+00
  0.00000000E+00  0.00000000E+00  1.00000000E+00  0.00000000E+00  0.00000000E+00
  0.00000000E+00  0.00000000E+00  0.00000000E+00  0.00000000E+00  0.00000000E+00
  0.00000000E+00  0.00000000E+00  0.00000000E+00  1.00000000E+00  1.00000000E+00
MxBond                                     I                3
NBond                                      I   N=          20
           3           3           3           3           3           1
           1           1           3           3           1           1
           1           3           1           3           1           1
           3           1
IBond                                      I   N=          60
           2          14          19           1           3           6
           2           4           7           3           5           9
           4           8          19           2           0           0
           3           0           0           5           0           0
           4          10          12           9          11          13
          10           0           0           9           0           0
          10           0           0           1          15          16
          14           0           0          14          17          18
          16           0           0          16           0           0
           1           5          20          19           0           0
RBond                                      R   N=          60
  1.50000000E+00  1.00000000E+00  1.50000000E+00  1.50000000E+00  1.50000000E+00
  1.00000000E+00  1.50000000E+00  1.50000000E+00  1.00000000E+00  1.50000000E+00
  1.50000000E+00  1.00000000E+00  1.50000000E+00  1.00000000E+00  1.50000000E+00
  1.00000000E+00  0.00000000E+00  0.00000000E+00  1.00000000E+00  0.00000000E+00
  0.00000000E+00  1.00000000E+00  0.00000000E+00  0.00000000E+00  1.00000000E+00
  2.00000000E+00  1.00000000E+00  2.00000000E+00  1.00000000E+00  1.00000000E+00
  1.00000000E+00  0.00000000E+00  0.00000000E+00  1.00000000E+00  0.00000000E+00
  0.00000000E+00  1.00000000E+00  0.00000000E+00  0.00000000E+00  1.00000000E+00
  1.00000000E+00  2.00000000E+00  1.00000000E+00  0.00000000E+00  0.00000000E+00
  2.00000000E+00  1.00000000E+00  1.00000000E+00  1.00000000E+00  0.00000000E+00
  0.00000000E+00  1.00000000E+00  0.00000000E+00  0.00000000E+00  1.50000000E+00
  1.50000000E+00  1.00000000E+00  1.00000000E+00  0.00000000E+00  0.00000000E+00
Virial Ratio                               R      2.017190470107922E+00
SCF Energy                                 R     -3.823082597266491E+02
Total Energy                               R     -3.823082597266491E+02
RMS Force                                  R      8.326871073023843E-06
RMS Density                                R      8.862732810333649E-09
External E-field                           R   N=          35
  0.00000000E+00  0.00000000E+00  0.00000000E+00  0.00000000E+00  0.00000000E+00
  0.00000000E+00  0.00000000E+00  0.00000000E+00  0.00000000E+00  0.00000000E+00
  0.00000000E+00  0.00000000E+00  0.00000000E+00  0.00000000E+00  0.00000000E+00
  0.00000000E+00  0.00000000E+00  0.00000000E+00  0.00000000E+00  0.00000000E+00
  0.00000000E+00  0.00000000E+00  0.00000000E+00  0.00000000E+00  0.00000000E+00
  0.00000000E+00  0.00000000E+00  0.00000000E+00  0.00000000E+00  0.00000000E+00
  0.00000000E+00  0.00000000E+00  0.00000000E+00  0.00000000E+00  0.00000000E+00
IOpCl                                      I                0
IROHF                                      I                0
Alpha Orbital Energies                     R   N=          60
 -1.00202164E+01 -1.00201690E+01 -1.00081139E+01 -1.00081122E+01 -1.00067918E+01
 -1.00067875E+01 -1.00060584E+01 -1.00059205E+01 -9.99232876E+00 -9.99232849E+00
 -8.09501294E-01 -7.53985935E-01 -7.17963620E-01 -6.99783360E-01 -6.67507858E-01
 -5.88696171E-01 -5.58932061E-01 -5.31665227E-01 -5.10165374E-01 -4.57442377E-01
 -4.39357667E-01 -4.10614534E-01 -3.97951065E-01 -3.96063779E-01 -3.73976358E-01
 -3.51148553E-01 -3.47291687E-01 -3.24504943E-01 -3.11248211E-01 -2.92800826E-01
 -2.87449745E-01 -2.63549710E-01 -2.12444120E-01 -1.95053396E-01 -1.53079008E-01
  3.74054826E-02  9.03611349E-02  1.10608695E-01  1.82211224E-01  2.72521386E-01
  3.32240189E-01  3.40730312E-01  3.79401809E-01  3.81455656E-01  4.10983236E-01
  4.11966322E-01  4.26734963E-01  4.39639788E-01  4.52755997E-01  4.78244094E-01
  5.26247161E-01  5.45795556E-01  5.75991616E-01  5.99416795E-01  6.25016375E-01
  6.39663417E-01  6.82854121E-01  7.17220093E-01  7.79533215E-01  7.94573367E-01
Alpha MO coefficients                      R   N=        3600
  7.02317222E-01  3.17027166E-02  9.15326820E-04 -3.51386428E-05 -5.37637610E-07
 -1.92243038E-02 -7.74201017E-03  1.32239606E-03 -4.19624439E-03 -4.08396808E-07
  1.84977855E-02  7.69495096E-03  2.63697253E-03  3.49920769E-03 -4.43195965E-08
 -6.96259550E-01 -3.14310619E-02  9.09824559E-04 -3.49262327E-05 -3.12745361E-07
  1.90602960E-02  7.68231978E-03  1.30727832E-03 -4.16087585E-03  1.37674566E-07
  3.33550480E-04 -3.31964040E-04 -3.31638356E-04  2.72956734E-02  6.69601770E-03
 -3.94996868E-03  9.22916828E-04 -3.52577954E-07 -1.80444439E-04 -4.72109768E-04
  2.81055422E-04 -6.06232392E-06  1.40761559E-08  1.47749801E-04 -3.24325316E-04
  2.85749445E-05 -2.75391341E-02 -6.75494604E-03 -3.98461114E-03  9.31049535E-04
  1.28021989E-07  3.27260626E-04  1.81700066E-04  4.76311139E-04  2.83537975E-04
 -5.98362196E-06 -6.74901280E-09 -1.48965749E-04 -2.88398147E-05 -1.86650843E-02
 -7.75470414E-03  2.66299868E-03  3.52783467E-03 -1.38762910E-07  3.33860326E-04
  6.96257228E-01  3.12234923E-02  6.38731109E-04  2.01569555E-05 -5.26984159E-07
 -1.93158942E-02 -6.84498055E-03  1.73735401E-03 -4.05303286E-03 -3.78835629E-07
 -1.91382451E-02 -6.94641978E-03 -3.02971205E-03 -3.31817447E-03  1.04817737E-08
  7.02315013E-01  3.14969845E-02 -6.46702732E-04 -2.02549271E-05  2.92712964E-07
 -1.94862602E-02 -6.91164962E-03 -1.74875171E-03  4.08912709E-03 -1.30703978E-07
  2.21432440E-04  2.21356929E-04  2.24342033E-04 -2.78984484E-02 -6.82246263E-03
  4.02209990E-03 -9.38893177E-04  3.66879384E-07  1.95897276E-04  4.79446196E-04
 -2.90189145E-04  5.54349729E-06 -1.53461167E-08 -1.41172920E-04  3.38455502E-04
 -2.79152473E-05 -2.76637855E-02 -6.76427790E-03 -3.98767671E-03  9.30900272E-04
  1.27990755E-07  3.35645526E-04  1.93893658E-04  4.75405166E-04  2.87724333E-04
 -5.36210025E-06 -6.91947937E-09 -1.39882233E-04 -2.76905976E-05 -1.89792321E-02
 -6.87926731E-03  3.00667593E-03  3.28764904E-03 -1.64725024E-07  2.18495058E-04
  3.79348027E-02 -5.54647840E-03  5.58426349E-03 -9.33007180E-04 -1.53007465E-07
 -1.16275090E-02 -5.88448086E-04 -7.34994376E-05 -2.15007707E-04 -1.69086112E-08
  2.34863290E-03  2.12378772E-04 -3.28718850E-05  2.56027166E-05 -9.86061938E-09
 -1.16745061E-02  1.75872297E-03  1.75387031E-03 -2.95199734E-04  1.46643770E-07
  2.06280627E-03  1.95921314E-04 -6.14265599E-05 -1.98981608E-05 -1.03339187E-09
 -8.16552803E-05 -2.95983710E-05  2.42749976E-05 -2.94033622E-01 -1.29410815E-02
 -4.48328174E-04 -3.10287106E-04  4.54804070E-08  3.41156483E-03  3.19921484E-03
 -1.45321750E-03 -1.27047316E-03 -8.38616052E-09 -7.80994931E-05  2.69934049E-03
 -9.05934603E-05  9.44989530E-01  4.15617435E-02 -1.46135115E-03 -9.93545889E-04
  1.20880276E-07 -8.67224547E-03 -1.09522942E-02 -1.02806097E-02 -4.66718461E-03
 -4.08514248E-03 -9.10519592E-08  2.51803406E-04  2.91651643E-04 -1.31784555E-02
 -7.32493412E-04  2.42086593E-05  2.02137705E-04  7.50347546E-09  1.05584103E-04
  1.19538782E-02 -1.68519435E-03  1.71707118E-03 -2.84252098E-04 -4.88553544E-08
 -5.50896304E-03 -1.67540715E-04  2.40007083E-05 -1.23943017E-04  1.73870835E-09
 -1.43901570E-02 -7.43378032E-04 -5.20205499E-05 -2.27781551E-04  9.68650376E-09
  3.80167568E-02 -5.52361764E-03 -5.57287251E-03  9.29623913E-04 -4.77321380E-07
 -1.27195576E-02 -5.80420772E-04  4.69545399E-05  2.47368320E-04 -9.05703145E-09
 -2.67605192E-05  1.07997779E-04 -8.23178742E-05  9.44954953E-01  4.15540515E-02
  1.46566143E-03  9.91706826E-04 -1.40585483E-07 -1.09507106E-02 -1.02798002E-02
  4.66686426E-03  4.08460426E-03  2.61853271E-08  2.51945387E-04 -8.67151869E-03
  2.91751612E-04  2.93922981E-01  1.29160195E-02 -4.62255364E-04 -3.07319366E-04
  3.74238862E-08 -2.69625774E-03 -3.40240030E-03 -3.19707280E-03 -1.45057943E-03
 -1.27111225E-03 -2.83334897E-08  7.86165838E-05  9.09017268E-05 -6.22691605E-03
 -2.46529427E-04  5.67058373E-05  1.08113371E-04  7.76032490E-09  3.68366832E-05
 -2.66573289E-02  7.67418127E-03  2.88408815E-03 -1.39837396E-03 -3.93487301E-07
 -5.45048065E-01 -2.70072651E-02 -2.56918260E-03 -2.19139514E-04 -5.83003509E-07
  2.99060617E-01  1.84464333E-02 -3.68659994E-03  9.91773197E-04 -1.05015275E-07
  2.81443512E-02 -8.04431830E-03  2.84642759E-03 -2.49605091E-03  4.39633875E-08
  6.71153370E-01  3.32829123E-02 -3.17056531E-03 -2.19626091E-04  3.60453192E-07
  5.01463533E-03 -2.85428164E-03 -6.17909862E-03  1.02160173E-02  5.69540837E-04
  4.91399441E-05  6.26818215E-05 -1.06610848E-08 -9.67116619E-04 -2.45578797E-04
  1.27166423E-04  3.45326779E-06  6.63733178E-09  1.74876757E-04 -1.46774901E-04
 -1.06782225E-05 -9.68896770E-03 -5.47857916E-04  3.64612838E-05  3.90272615E-05
  1.94383191E-09  1.36804842E-04  8.74628292E-04  2.24082548E-04  1.19087132E-04
  7.96640930E-06 -2.62123571E-09 -1.41003741E-04  9.53239572E-06 -3.76302401E-01
 -2.30313858E-02 -4.51834288E-03  1.21115273E-03  2.88327922E-07  3.57099181E-03
  9.85082524E-03 -2.56808385E-03 -1.22903895E-04  5.37442555E-03  2.27898043E-07
  6.57608710E-01  3.27242314E-02  3.13981999E-03  2.57752372E-05  7.05722533E-07
 -4.00389512E-01 -2.38182683E-02  4.34697292E-03 -1.14945873E-03  1.46553271E-07
  4.03254788E-03 -8.97280220E-04 -4.86334149E-04 -4.96197039E-03  8.78070836E-08
  5.28513046E-01  2.63227926E-02 -2.52943421E-03  2.08078616E-05  3.08037346E-07
 -6.07034234E-03  3.72343219E-03 -4.88212071E-03  1.33454375E-03  3.90089859E-05
  5.46146954E-05  1.05872013E-04  6.04695228E-10 -3.37879528E-04 -7.53054132E-05
  2.46361000E-05 -2.22347935E-05 -1.16709927E-09  1.42635422E-04 -3.07548710E-05
 -4.39178443E-06  3.44149485E-03  1.57462074E-04 -6.36829166E-05 -1.16663399E-04
  1.75239761E-09 -6.08469856E-05 -5.33946922E-04 -1.25163326E-04 -5.08128936E-05
  2.10550086E-05  4.76370598E-09  1.76193033E-04 -6.54991628E-06 -3.28481883E-01
 -1.94061391E-02 -3.47610292E-03  9.15348169E-04  2.67633070E-07  3.03940929E-03
  7.56104767E-03 -2.28082724E-03 -1.74916012E-03 -4.75950866E-03  3.35157350E-08
 -3.39976916E-01 -9.23562337E-03  3.43453770E-03 -9.30260403E-04 -1.94316513E-07
 -6.10514226E-01 -2.37803025E-02 -1.64464223E-03 -3.89566230E-04  7.14537666E-08
 -7.39618964E-03  2.23981223E-03 -1.73106809E-03 -4.75415517E-03  5.54052633E-08
  3.41914702E-01  9.28754322E-03  3.45463547E-03 -9.34119369E-04 -6.31534271E-08
  2.91034560E-03  5.41518176E-03 -2.92795845E-03 -3.60194120E-03 -2.05342989E-04
 -2.59350451E-05  3.87498611E-06  9.55371100E-09 -9.18349774E-05  4.86759369E-05
 -2.20677422E-05 -4.67402516E-05 -1.60015113E-09  6.50772413E-05  6.30753192E-05
 -8.70536114E-06  3.68661614E-03  2.08953860E-04 -2.69278070E-05  3.86940195E-06
 -9.19599013E-09 -6.42933211E-05  8.60965913E-05 -5.02763970E-05 -2.29849293E-05
 -4.70222437E-05 -5.99200900E-09 -6.47070741E-05  8.65193573E-06  6.14031170E-01
  2.39165263E-02 -1.65409174E-03 -3.89709039E-04 -7.86021391E-08 -5.44729632E-03
  2.83800131E-02 -7.32123317E-03 -3.14135252E-03 -6.72111664E-04  3.24635935E-07
  3.67825842E-01  1.05646151E-02 -3.39430361E-03  6.84551376E-04  2.52452764E-07
  5.98265898E-01  2.28318610E-02  1.87717479E-03 -2.47872239E-05 -6.06011237E-08
  2.84150271E-02 -7.33184291E-03  3.15041765E-03  7.00053878E-04  1.33506020E-08
  3.65687528E-01  1.05021035E-02  3.37543994E-03 -6.79065979E-04 -3.81778442E-08
 -3.34667373E-03 -5.46491178E-03 -3.32828058E-03  1.42894415E-02  6.23839419E-04
  1.73447284E-04  4.91530217E-06  4.88772958E-09 -1.08331530E-03 -2.83755344E-04
  1.66522222E-04  4.36968024E-05  8.21942055E-09  7.29202736E-05 -2.21865181E-04
 -1.07447639E-05  1.42629218E-02  6.22436339E-04 -1.73278311E-04 -4.95195837E-06
  1.22968754E-08 -2.21392074E-04 -1.08452732E-03 -2.83488734E-04 -1.66433313E-04
 -4.33961062E-05  1.12263395E-09  7.33387255E-05 -1.08131581E-05  5.94861799E-01
  2.27015208E-02 -1.86629940E-03  2.66543737E-05 -6.29530836E-08 -5.43476033E-03
  2.49539193E-04  2.21187060E-04 -6.82266863E-05 -3.17712851E-05 -3.66380822E-10
  1.14067937E-03 -3.30624178E-05  1.36926497E-04 -7.69103734E-06 -2.93014467E-09
  1.17611855E-04 -3.40564128E-05  4.85932278E-05 -5.15618461E-06  2.71466411E-09
 -3.65982254E-05 -3.42386204E-05 -1.10768536E-05 -3.64588151E-06 -1.17509593E-09
 -1.29019766E-04 -9.25616925E-06  3.18273537E-05 -3.71295863E-06  1.20562423E-09