Notitle                                                                 
SP        UB3LYP                                                      STO-3G              
Number of atoms                            I               20
Info1-9                                    I   N=           9
          83          83           0           0           0         111
           1          18        -502
Charge                                     I                1
Multiplicity                               I                2
Number of electrons                        I               69
Number of alpha electrons                  I               35
Number of beta electrons                   I               34
Number of basis functions                  I               60
Number of independent functions            I               60
Number of point charges in /Mol/           I                0
Number of translation vectors              I                0
Atomic numbers                             I   N=          20
           6           6           6           6           6           1
           1           1           6           6           1           1
           1           6           1           6           1           1
           6           1
Nuclear charges                            R   N=          20
  6.00000000E+00  6.00000000E+00  6.00000000E+00  6.00000000E+00  6.00000000E+00
  1.00000000E+00  1.00000000E+00  1.00000000E+00  6.00000000E+00  6.00000000E+00
  1.00000000E+00  1.00000000E+00  1.00000000E+00  6.00000000E+00  1.00000000E+00
  6.00000000E+00  1.00000000E+00  1.00000000E+00  6.00000000E+00  1.00000000E+00
Current cartesian coordinates              R   N=          60
  5.09245181E-01 -2.66467888E+00 -6.16297582E-32 -2.01208948E+00 -1.73987026E+00
  0.00000000E+00 -2.50470684E+00  8.63658865E-01  2.46519033E-32 -5.09245181E-01
  2.66467888E+00  1.23259516E-32  2.01208948E+00  1.73987026E+00  1.23259516E-32
 -3.59885866E+00 -3.07571066E+00 -1.23259516E-32 -4.46877151E+00  1.53666346E+00
  0.00000000E+00  3.59885866E+00  3.07571066E+00  1.23259516E-32 -1.14088779E+00
  5.42335670E+00  1.23259516E-31  5.09245181E-01  7.35472327E+00  4.93038066E-32
  2.56089320E+00  7.07138071E+00  2.04148574E-32 -3.17833820E+00  5.83926410E+00
  1.23259516E-31 -1.39893764E-01  9.32196137E+00  2.71170936E-31  1.14088779E+00
 -5.42335670E+00  0.00000000E+00  3.17833820E+00 -5.83926410E+00 -1.23259516E-31
 -5.09245181E-01 -7.35472327E+00 -1.23259516E-31 -2.56089320E+00 -7.07138071E+00
 -1.19022471E-31  1.39893764E-01 -9.32196137E+00  1.47911420E-31  2.50470684E+00
 -8.63658865E-01  0.00000000E+00  4.46877151E+00 -1.53666346E+00  0.00000000E+00
Force Field                                I                0
Int Atom Types                             I   N=          20
           0           0           0           0           0           0
           0           0           0           0           0           0
           0           0           0           0           0           0
           0           0
MM charges                                 R   N=          20
  0.00000000E+00  0.00000000E+00  0.00000000E+00  0.00000000E+00  0.00000000E+00
  0.00000000E+00  0.00000000E+00  0.00000000E+00  0.00000000E+00  0.00000000E+00
  0.00000000E+00  0.00000000E+00  0.00000000E+00  0.00000000E+00  0.00000000E+00
  0.00000000E+00  0.00000000E+00  0.00000000E+00  0.00000000E+00  0.00000000E+00
Integer atomic weights                     I   N=          20
          12          12          12          12          12           1
           1           1          12          12           1           1
           1          12           1          12           1           1
          12           1
Real atomic weights                        R   N=          20
  1.20000000E+01  1.20000000E+01  1.20000000E+01  1.20000000E+01  1.20000000E+01
  1.00782504E+00  1.00782504E+00  1.00782504E+00  1.20000000E+01  1.20000000E+01
  1.00782504E+00  1.00782504E+00  1.00782504E+00  1.20000000E+01  1.00782504E+00
  1.20000000E+01  1.00782504E+00  1.00782504E+00  1.20000000E+01  1.00782504E+00
Atom fragment info                         I   N=          20
           0           0           0           0           0           0
           0           0           0           0           0           0
           0           0           0           0           0           0
           0           0
Atom residue num                           I   N=          20
           0           0           0           0           0           0
           0           0           0           0           0           0
           0           0           0           0           0           0
           0           0
Nuclear spins                              I   N=          20
           0           0           0           0           0           1
           1           1           0           0           1           1
           1           0           1           0           1           1
           0           1
Nuclear ZEff                               R   N=          20
 -3.60000000E+00 -3.60000000E+00 -3.60000000E+00 -3.60000000E+00 -3.60000000E+00
 -1.00000000E+00 -1.00000000E+00 -1.00000000E+00 -3.60000000E+00 -3.60000000E+00
 -1.00000000E+00 -1.00000000E+00 -1.00000000E+00 -3.60000000E+00 -1.00000000E+00
 -3.60000000E+00 -1.00000000E+00 -1.00000000E+00 -3.60000000E+00 -1.00000000E+00
Nuclear QMom                               R   N=          20
  0.00000000E+00  0.00000000E+00  0.00000000E+00  0.00000000E+00  0.00000000E+00
  0.00000000E+00  0.00000000E+00  0.00000000E+00  0.00000000E+00  0.00000000E+00
  0.00000000E+00  0.00000000E+00  0.00000000E+00  0.00000000E+00  0.00000000E+00
  0.00000000E+00  0.00000000E+00  0.00000000E+00  0.00000000E+00  0.00000000E+00
Nuclear GFac                               R   N=          20
  0.00000000E+00  0.00000000E+00  0.00000000E+00  0.00000000E+00  0.00000000E+00
  2.79284600E+00  2.79284600E+00  2.79284600E+00  0.00000000E+00  0.00000000E+00
  2.79284600E+00  2.79284600E+00  2.79284600E+00  0.00000000E+00  2.79284600E+00
  0.00000000E+00  2.79284600E+00  2.79284600E+00  0.00000000E+00  2.79284600E+00
MicOpt                                     I   N=          20
          -1          -1          -1          -1          -1          -1
          -1          -1          -1          -1          -1          -1
          -1          -1          -1          -1          -1          -1
          -1          -1
Number of contracted shells                I               30
Number of primitive shells                 I               90
Pure/Cartesian d shells                    I                0
Pure/Cartesian f shells                    I                0
Highest angular momentum                   I                1
Largest degree of contraction              I                3
Shell types                                I   N=          30
           0          -1           0          -1           0          -1
           0          -1           0          -1           0           0
           0           0          -1           0          -1           0
           0           0           0          -1           0           0
          -1           0           0           0          -1           0
Number of primitives per shell             I   N=          30
           3           3           3           3           3           3
           3           3           3           3           3           3
           3           3           3           3           3           3
           3           3           3           3           3           3
           3           3           3           3           3           3
Shell to atom map                          I   N=          30
           1           1           2           2           3           3
           4           4           5           5           6           7
           8           9           9          10          10          11
          12          13          14          14          15          16
          16          17          18          19          19          20
Primitive exponents                        R   N=          90
  7.16168373E+01  1.30450963E+01  3.53051216E+00  2.94124936E+00  6.83483096E-01
  2.22289916E-01  7.16168373E+01  1.30450963E+01  3.53051216E+00  2.94124936E+00
  6.83483096E-01  2.22289916E-01  7.16168373E+01  1.30450963E+01  3.53051216E+00
  2.94124936E+00  6.83483096E-01  2.22289916E-01  7.16168373E+01  1.30450963E+01
  3.53051216E+00  2.94124936E+00  6.83483096E-01  2.22289916E-01  7.16168373E+01
  1.30450963E+01  3.53051216E+00  2.94124936E+00  6.83483096E-01  2.22289916E-01
  3.42525091E+00  6.23913730E-01  1.68855404E-01  3.42525091E+00  6.23913730E-01
  1.68855404E-01  3.42525091E+00  6.23913730E-01  1.68855404E-01  7.16168373E+01
  1.30450963E+01  3.53051216E+00  2.94124936E+00  6.83483096E-01  2.22289916E-01
  7.16168373E+01  1.30450963E+01  3.53051216E+00  2.94124936E+00  6.83483096E-01
  2.22289916E-01  3.42525091E+00  6.23913730E-01  1.68855404E-01  3.42525091E+00
  6.23913730E-01  1.68855404E-01  3.42525091E+00  6.23913730E-01  1.68855404E-01
  7.16168373E+01  1.30450963E+01  3.53051216E+00  2.94124936E+00  6.83483096E-01
  2.22289916E-01  3.42525091E+00  6.23913730E-01  1.68855404E-01  7.16168373E+01
  1.30450963E+01  3.53051216E+00  2.94124936E+00  6.83483096E-01  2.22289916E-01
  3.42525091E+00  6.23913730E-01  1.68855404E-01  3.42525091E+00  6.23913730E-01
  1.68855404E-01  7.16168373E+01  1.30450963E+01  3.53051216E+00  2.94124936E+00
  6.83483096E-01  2.22289916E-01  3.42525091E+00  6.23913730E-01  1.68855404E-01
Contraction coefficients                   R   N=          90
  1.54328967E-01  5.35328142E-01  4.44634542E-01 -9.99672292E-02  3.99512826E-01
  7.00115469E-01  1.54328967E-01  5.35328142E-01  4.44634542E-01 -9.99672292E-02
  3.99512826E-01  7.00115469E-01  1.54328967E-01  5.35328142E-01  4.44634542E-01
 -9.99672292E-02  3.99512826E-01  7.00115469E-01  1.54328967E-01  5.35328142E-01
  4.44634542E-01 -9.99672292E-02  3.99512826E-01  7.00115469E-01  1.54328967E-01
  5.35328142E-01  4.44634542E-01 -9.99672292E-02  3.99512826E-01  7.00115469E-01
  1.54328967E-01  5.35328142E-01  4.44634542E-01  1.54328967E-01  5.35328142E-01
  4.44634542E-01  1.54328967E-01  5.35328142E-01  4.44634542E-01  1.54328967E-01
  5.35328142E-01  4.44634542E-01 -9.99672292E-02  3.99512826E-01  7.00115469E-01
  1.54328967E-01  5.35328142E-01  4.44634542E-01 -9.99672292E-02  3.99512826E-01
  7.00115469E-01  1.54328967E-01  5.35328142E-01  4.44634542E-01  1.54328967E-01
  5.35328142E-01  4.44634542E-01  1.54328967E-01  5.35328142E-01  4.44634542E-01
  1.54328967E-01  5.35328142E-01  4.44634542E-01 -9.99672292E-02  3.99512826E-01
  7.00115469E-01  1.54328967E-01  5.35328142E-01  4.44634542E-01  1.54328967E-01
  5.35328142E-01  4.44634542E-01 -9.99672292E-02  3.99512826E-01  7.00115469E-01
  1.54328967E-01  5.35328142E-01  4.44634542E-01  1.54328967E-01  5.35328142E-01
  4.44634542E-01  1.54328967E-01  5.35328142E-01  4.44634542E-01 -9.99672292E-02
  3.99512826E-01  7.00115469E-01  1.54328967E-01  5.35328142E-01  4.44634542E-01
P(S=P) Contraction coefficients            R   N=          90
  0.00000000E+00  0.00000000E+00  0.00000000E+00  1.55916275E-01  6.07683719E-01
  3.91957393E-01  0.00000000E+00  0.00000000E+00  0.00000000E+00  1.55916275E-01
  6.07683719E-01  3.91957393E-01  0.00000000E+00  0.00000000E+00  0.00000000E+00
  1.55916275E-01  6.07683719E-01  3.91957393E-01  0.00000000E+00  0.00000000E+00
  0.00000000E+00  1.55916275E-01  6.07683719E-01  3.91957393E-01  0.00000000E+00
  0.00000000E+00  0.00000000E+00  1.55916275E-01  6.07683719E-01  3.91957393E-01
  0.00000000E+00  0.00000000E+00  0.00000000E+00  0.00000000E+00  0.00000000E+00
  0.00000000E+00  0.00000000E+00  0.00000000E+00  0.00000000E+00  0.00000000E+00
  0.00000000E+00  0.00000000E+00  1.55916275E-01  6.07683719E-01  3.91957393E-01
  0.00000000E+00  0.00000000E+00  0.00000000E+00  1.55916275E-01  6.07683719E-01
  3.91957393E-01  0.00000000E+00  0.00000000E+00  0.00000000E+00  0.00000000E+00
  0.00000000E+00  0.00000000E+00  0.00000000E+00  0.00000000E+00  0.00000000E+00
  0.00000000E+00  0.00000000E+00  0.00000000E+00  1.55916275E-01  6.07683719E-01
  3.91957393E-01  0.00000000E+00  0.00000000E+00  0.00000000E+00  0.00000000E+00
  0.00000000E+00  0.00000000E+00  1.55916275E-01  6.07683719E-01  3.91957393E-01
  0.00000000E+00  0.00000000E+00  0.00000000E+00  0.00000000E+00  0.00000000E+00
  0.00000000E+00  0.00000000E+00  0.00000000E+00  0.00000000E+00  1.55916275E-01
  6.07683719E-01  3.91957393E-01  0.00000000E+00  0.00000000E+00  0.00000000E+00
Coordinates of each shell                  R   N=          90
  5.09245181E-01 -2.66467888E+00 -3.12754701E-32  5.09245181E-01 -2.66467888E+00
 -3.12754701E-32 -2.01208948E+00 -1.73987026E+00 -2.76457861E-32 -2.01208948E+00
 -1.73987026E+00 -2.76457861E-32 -2.50470684E+00  8.63658865E-01  2.92719356E-33
 -2.50470684E+00  8.63658865E-01  2.92719356E-33 -5.09245181E-01  2.66467888E+00
  8.57618714E-33 -5.09245181E-01  2.66467888E+00  8.57618714E-33  2.01208948E+00
  1.73987026E+00  4.17239254E-32  2.01208948E+00  1.73987026E+00  4.17239254E-32
 -3.59885866E+00 -3.07571066E+00 -4.90009003E-32 -4.46877151E+00  1.53666346E+00
  5.17037414E-33  3.59885866E+00  3.07571066E+00  7.44047276E-32 -1.14088779E+00
  5.42335670E+00  6.33324006E-32 -1.14088779E+00  5.42335670E+00  6.33324006E-32
  5.09245181E-01  7.35472327E+00  9.22231962E-32  5.09245181E-01  7.35472327E+00
  9.22231962E-32  2.56089320E+00  7.07138071E+00  9.50528581E-32 -3.17833820E+00
  5.83926410E+00  6.21804762E-32 -1.39893764E-01  9.32196137E+00  1.14470964E-31
  1.14088779E+00 -5.42335670E+00 -1.58458567E-32  1.14088779E+00 -5.42335670E+00
 -1.58458567E-32  3.17833820E+00 -5.83926410E+00  1.29828102E-32 -5.09245181E-01
 -7.35472327E+00 -5.31731460E-32 -5.09245181E-01 -7.35472327E+00 -5.31731460E-32
 -2.56089320E+00 -7.07138071E+00 -8.30375555E-32  1.39893764E-01 -9.32196137E+00
 -5.52956178E-32  2.50470684E+00 -8.63658865E-01  3.32684105E-32  2.50470684E+00
 -8.63658865E-01  3.32684105E-32  4.46877151E+00 -1.53666346E+00  5.93819071E-32
Constraint Structure                       R   N=          60
  5.09245181E-01 -2.66467888E+00 -3.12754701E-32 -2.01208948E+00 -1.73987026E+00
 -2.76457861E-32 -2.50470684E+00  8.63658865E-01  2.92719356E-33 -5.09245181E-01
  2.66467888E+00  8.57618714E-33  2.01208948E+00  1.73987026E+00  4.17239254E-32
 -3.59885866E+00 -3.07571066E+00 -4.90009003E-32 -4.46877151E+00  1.53666346E+00
  5.17037414E-33  3.59885866E+00  3.07571066E+00  7.44047276E-32 -1.14088779E+00
  5.42335670E+00  6.33324006E-32  5.09245181E-01  7.35472327E+00  9.22231962E-32
  2.56089320E+00  7.07138071E+00  9.50528581E-32 -3.17833820E+00  5.83926410E+00
  6.21804762E-32 -1.39893764E-01  9.32196137E+00  1.14470964E-31  1.14088779E+00
 -5.42335670E+00 -1.58458567E-32  3.17833820E+00 -5.83926410E+00  1.29828102E-32
 -5.09245181E-01 -7.35472327E+00 -5.31731460E-32 -2.56089320E+00 -7.07138071E+00
 -8.30375555E-32  1.39893764E-01 -9.32196137E+00 -5.52956178E-32  2.50470684E+00
 -8.63658865E-01  3.32684105E-32  4.46877151E+00 -1.53666346E+00  5.93819071E-32
Num ILSW                                   I              100
ILSW                                       I   N=         100
           1           0           0           0           2           0
           0           0           0           0         402          -1
           0           0           0           0           0           0
           0           0           0           0           0           0
           1           0           0           0           0           0
           0           0      100000           0          -1           0
           0           0           0           0           0           0
           0           0           0           1           0           0
           0           0           1           0           0           0
           0           0           4          40           0           0
           0           0           5           0           0           0
           0           0           0           0           0           0
           0           0           0           0           0           0
           0           0           0           0           0           0
           0           0           0           0           0           0
           0           0           0           0           0           0
           0           0           0           0
Num RLSW                                   I               40
RLSW                                       R   N=          40
  8.00000000E-01  7.20000000E-01  1.00000000E+00  8.10000000E-01  2.00000000E-01
  0.00000000E+00  0.00000000E+00  1.00000000E+00  0.00000000E+00  0.00000000E+00
  0.00000000E+00  0.00000000E+00  1.00000000E+00  0.00000000E+00  0.00000000E+00
  0.00000000E+00  0.00000000E+00  1.00000000E+00  0.00000000E+00  0.00000000E+00
  0.00000000E+00  0.00000000E+00  1.00000000E+00  0.00000000E+00  0.00000000E+00
  0.00000000E+00  0.00000000E+00  1.00000000E+00  0.00000000E+00  0.00000000E+00
  0.00000000E+00  0.00000000E+00  0.00000000E+00  0.00000000E+00  0.00000000E+00
  0.00000000E+00  0.00000000E+00  0.00000000E+00  1.00000000E+00  1.00000000E+00
MxBond                                     I                3
NBond                                      I   N=          20
           3           3           3           3           3           1
           1           1           3           3           1           1
           1           3           1           3           1           1
           3           1
IBond                                      I   N=          60
           2          14          19           1           3           6
           2           4           7           3           5           9
           4           8          19           2           0           0
           3           0           0           5           0           0
           4          10          12           9          11          13
          10           0           0           9           0           0
          10           0           0           1          15          16
          14           0           0          14          17          18
          16           0           0          16           0           0
           1           5          20          19           0           0
RBond                                      R   N=          60
  1.50000000E+00  1.00000000E+00  1.50000000E+00  1.50000000E+00  1.50000000E+00
  1.00000000E+00  1.50000000E+00  1.50000000E+00  1.00000000E+00  1.50000000E+00
  1.50000000E+00  1.00000000E+00  1.50000000E+00  1.00000000E+00  1.50000000E+00
  1.00000000E+00  0.00000000E+00  0.00000000E+00  1.00000000E+00  0.00000000E+00
  0.00000000E+00  1.00000000E+00  0.00000000E+00  0.00000000E+00  1.00000000E+00
  2.00000000E+00  1.00000000E+00  2.00000000E+00  1.00000000E+00  1.00000000E+00
  1.00000000E+00  0.00000000E+00  0.00000000E+00  1.00000000E+00  0.00000000E+00
  0.00000000E+00  1.00000000E+00  0.00000000E+00  0.00000000E+00  1.00000000E+00
  1.00000000E+00  2.00000000E+00  1.00000000E+00  0.00000000E+00  0.00000000E+00
  2.00000000E+00  1.00000000E+00  1.00000000E+00  1.00000000E+00  0.00000000E+00
  0.00000000E+00  1.00000000E+00  0.00000000E+00  0.00000000E+00  1.50000000E+00
  1.50000000E+00  1.00000000E+00  1.00000000E+00  0.00000000E+00  0.00000000E+00
Virial Ratio                               R      2.019175273254161E+00
SCF Energy                                 R     -3.820813923664331E+02
Total Energy                               R     -3.820813923664331E+02
S**2                                       R      7.778022426828457E-01
S**2 after annihilation                    R      7.503851218153462E-01
RMS Density                                R      5.859133219323086E-09
External E-field                           R   N=          35
  0.00000000E+00  0.00000000E+00  0.00000000E+00  0.00000000E+00  0.00000000E+00
  0.00000000E+00  0.00000000E+00  0.00000000E+00  0.00000000E+00  0.00000000E+00
  0.00000000E+00  0.00000000E+00  0.00000000E+00  0.00000000E+00  0.00000000E+00
  0.00000000E+00  0.00000000E+00  0.00000000E+00  0.00000000E+00  0.00000000E+00
  0.00000000E+00  0.00000000E+00  0.00000000E+00  0.00000000E+00  0.00000000E+00
  0.00000000E+00  0.00000000E+00  0.00000000E+00  0.00000000E+00  0.00000000E+00
  0.00000000E+00  0.00000000E+00  0.00000000E+00  0.00000000E+00  0.00000000E+00
IOpCl                                      I                1
IROHF                                      I                0
Alpha Orbital Energies                     R   N=          60
 -1.02535640E+01 -1.02535146E+01 -1.02192957E+01 -1.02192575E+01 -1.02179233E+01
 -1.02178279E+01 -1.02177354E+01 -1.02177248E+01 -1.02153854E+01 -1.02153853E+01
 -1.02076071E+00 -9.61927727E-01 -9.21663463E-01 -8.99045530E-01 -8.76871626E-01
 -7.87249286E-01 -7.59616339E-01 -7.22746942E-01 -7.03792937E-01 -6.50311766E-01
 -6.35121289E-01 -6.03743496E-01 -5.96032138E-01 -5.87919092E-01 -5.68382025E-01
 -5.52429303E-01 -5.37362587E-01 -5.33634565E-01 -5.01196976E-01 -4.92965833E-01
 -4.82686348E-01 -4.73667140E-01 -4.17975145E-01 -3.94198699E-01 -3.69758573E-01
 -1.77495970E-01 -1.11271340E-01 -9.44443672E-02 -2.95954015E-02  6.02060365E-02
  1.39512290E-01  1.49073245E-01  1.79249633E-01  1.96609468E-01  2.15434808E-01
  2.21026604E-01  2.39899076E-01  2.41558123E-01  2.62126715E-01  2.85275632E-01
  3.20504845E-01  3.43758552E-01  3.79612713E-01  3.98967885E-01  4.25567373E-01
  4.38147097E-01  4.77675649E-01  5.05986706E-01  5.68199652E-01  5.82030580E-01
Beta Orbital Energies                      R   N=          60
 -1.02505878E+01 -1.02505428E+01 -1.02189903E+01 -1.02189559E+01 -1.02185814E+01
 -1.02185810E+01 -1.02176968E+01 -1.02175908E+01 -1.02109188E+01 -1.02109187E+01
 -1.01470801E+00 -9.54492647E-01 -9.13794102E-01 -8.97401269E-01 -8.64672323E-01
 -7.81935876E-01 -7.55563465E-01 -7.18835351E-01 -7.00665707E-01 -6.48112367E-01
 -6.33053294E-01 -6.01002861E-01 -5.93244975E-01 -5.85021307E-01 -5.67659460E-01
 -5.49489375E-01 -5.35407085E-01 -5.17363444E-01 -4.99578955E-01 -4.91467964E-01
 -4.81111411E-01 -4.50852068E-01 -3.91017979E-01 -3.88816887E-01 -3.00529044E-01
 -1.47048210E-01 -1.03161036E-01 -7.37199452E-02 -8.23494158E-03  7.63874648E-02
  1.41942510E-01  1.50963226E-01  1.81105287E-01  1.98118993E-01  2.21057373E-01
  2.26381262E-01  2.42932789E-01  2.46582708E-01  2.69280498E-01  2.90462480E-01
  3.24234775E-01  3.47229991E-01  3.81088732E-01  4.01111714E-01  4.29895969E-01
  4.40712220E-01  4.81462860E-01  5.11388351E-01  5.71921489E-01  5.85194371E-01
Alpha MO coefficients                      R   N=        3600
  7.00266457E-01  3.12771424E-02 -8.34985116E-05  1.03150863E-03  0.00000000E+00
 -7.29363324E-03 -7.10553258E-03 -4.23406087E-03  1.31474538E-03  0.00000000E+00
  7.01619529E-03  7.12390066E-03  3.45606244E-03  2.80486131E-03  0.00000000E+00
 -7.00266457E-01 -3.12771424E-02 -8.34985116E-05  1.03150863E-03  0.00000000E+00
  7.29363324E-03  7.10553258E-03 -4.23406087E-03  1.31474538E-03  0.00000000E+00
  2.17001135E-04 -2.23316129E-04 -2.17001135E-04  8.88690718E-03  5.88166276E-03
  9.84192987E-04 -3.95898605E-03  0.00000000E+00 -3.56922181E-05 -2.73260690E-04
 -8.79095862E-05  1.86760892E-04  0.00000000E+00  1.39993899E-04 -1.53315145E-04
  2.41161011E-05 -8.88690718E-03 -5.88166276E-03  9.84192987E-04 -3.95898605E-03
  0.00000000E+00  1.53315145E-04  3.56922181E-05  2.73260690E-04 -8.79095862E-05
  1.86760892E-04  0.00000000E+00 -1.39993899E-04 -2.41161011E-05 -7.01619529E-03
 -7.12390066E-03  3.45606244E-03  2.80486131E-03  0.00000000E+00  2.23316129E-04
  7.00289904E-01  3.10842964E-02 -2.41170674E-05  7.65360083E-04  0.00000000E+00
 -7.63737010E-03 -6.49386434E-03 -4.11593693E-03  1.59741933E-03  0.00000000E+00
 -7.44322089E-03 -6.53329167E-03 -3.27525090E-03 -3.02118757E-03  0.00000000E+00
  7.00289904E-01  3.10842964E-02  2.41170674E-05 -7.65360083E-04  0.00000000E+00
 -7.63737010E-03 -6.49386434E-03  4.11593693E-03 -1.59741933E-03  0.00000000E+00
  1.08972912E-04  1.11039041E-04  1.08972912E-04 -8.99443185E-03 -5.94245133E-03
 -9.93349178E-04  4.00051998E-03  0.00000000E+00  4.27740038E-05  2.73369858E-04
  8.86181000E-05 -1.91582388E-04  0.00000000E+00 -1.32707565E-04  1.61407368E-04
 -2.32703514E-05 -8.99443185E-03 -5.94245133E-03  9.93349178E-04 -4.00051998E-03
  0.00000000E+00  1.61407368E-04  4.27740038E-05  2.73369858E-04 -8.86181000E-05
  1.91582388E-04  0.00000000E+00 -1.32707565E-04 -2.32703514E-05 -7.44322089E-03
 -6.53329167E-03  3.27525090E-03  3.02118757E-03  0.00000000E+00  1.11039041E-04
  9.94001622E-03 -7.65641094E-03  3.22723927E-03 -2.36715496E-03  0.00000000E+00
  6.80280151E-01  3.17847124E-02  6.77999017E-04  1.87214920E-03  0.00000000E+00
 -1.65729788E-01 -1.39292296E-02 -1.18704858E-03  4.31591870E-03  0.00000000E+00
 -9.94001622E-03  7.65641094E-03  3.22723927E-03 -2.36715496E-03  0.00000000E+00
 -6.80280151E-01 -3.17847124E-02  6.77999017E-04  1.87214920E-03  0.00000000E+00
 -6.13563213E-03  1.66196761E-03  6.13563213E-03  2.09267362E-03 -1.48249649E-04
 -6.86532043E-05  5.03500687E-05  0.00000000E+00  2.94280709E-03  1.96505215E-04
  5.31196436E-05 -6.67439815E-05  0.00000000E+00 -1.86936867E-04  2.40966088E-05
 -4.33439051E-06 -2.09267362E-03  1.48249649E-04 -6.86532043E-05  5.03500687E-05
  0.00000000E+00 -2.40966088E-05 -2.94280709E-03 -1.96505215E-04  5.31196436E-05
 -6.67439815E-05  0.00000000E+00  1.86936867E-04  4.33439051E-06  1.65729788E-01
  1.39292296E-02 -1.18704858E-03  4.31591870E-03  0.00000000E+00 -1.66196761E-03
  5.94506964E-03 -3.97710629E-03  4.87956540E-03 -6.60433123E-04  0.00000000E+00
  6.73495148E-01  3.14539673E-02  3.65102140E-04  1.83056192E-03  0.00000000E+00
 -1.91526868E-01 -1.46626466E-02 -1.11733649E-03  4.28437921E-03  0.00000000E+00
  5.94506964E-03 -3.97710629E-03 -4.87956540E-03  6.60433123E-04  0.00000000E+00
  6.73495148E-01  3.14539673E-02 -3.65102140E-04 -1.83056192E-03  0.00000000E+00
 -6.13612629E-03  1.77462428E-03 -6.13612629E-03 -4.64062046E-03 -1.31447801E-04
  1.15755922E-04  5.27943762E-05  0.00000000E+00 -2.13329394E-03 -1.26894404E-04
 -5.45305632E-05  3.23370022E-05  0.00000000E+00  1.83939711E-04 -6.04885298E-06
  2.55882397E-06 -4.64062046E-03 -1.31447801E-04 -1.15755922E-04 -5.27943762E-05
  0.00000000E+00 -6.04885298E-06 -2.13329394E-03 -1.26894404E-04  5.45305632E-05
 -3.23370022E-05  0.00000000E+00  1.83939711E-04  2.55882397E-06 -1.91526868E-01
 -1.46626466E-02  1.11733649E-03 -4.28437921E-03  0.00000000E+00  1.77462428E-03
 -5.34216212E-03  4.39976115E-03  3.99150459E-03  2.78359678E-03  0.00000000E+00
  1.66615528E-01  8.20398354E-04  8.78764506E-04 -4.04351520E-03  0.00000000E+00
  6.79742320E-01  2.85134255E-02  8.66100726E-04  5.70751523E-04  0.00000000E+00
  5.34216212E-03 -4.39976115E-03  3.99150459E-03  2.78359678E-03  0.00000000E+00
 -1.66615528E-01 -8.20398354E-04  8.78764506E-04 -4.04351520E-03  0.00000000E+00
 -1.31589608E-03 -6.01314810E-03  1.31589608E-03 -3.33706611E-02 -1.34555922E-03
 -3.87681663E-05 -7.77497691E-05  0.00000000E+00  2.12990710E-03  4.00613671E-04
 -1.25512365E-04 -1.46188398E-04  0.00000000E+00 -4.59170179E-05  2.57744890E-04
 -2.26917189E-05  3.33706611E-02  1.34555922E-03 -3.87681663E-05 -7.77497691E-05
  0.00000000E+00 -2.57744890E-04 -2.12990710E-03 -4.00613671E-04 -1.25512365E-04
 -1.46188398E-04  0.00000000E+00  4.59170179E-05  2.26917189E-05 -6.79742320E-01
 -2.85134255E-02  8.66100726E-04  5.70751523E-04  0.00000000E+00  6.01314810E-03
  6.91512435E-03 -5.27841110E-03 -1.68478284E-03 -4.32488871E-03  0.00000000E+00
  1.81777048E-01  2.06217356E-03  8.26071554E-04 -3.80943820E-03  0.00000000E+00
  6.41424387E-01  2.65456803E-02  4.83574515E-04  7.65401392E-04  0.00000000E+00
  6.91512435E-03 -5.27841110E-03  1.68478284E-03  4.32488871E-03  0.00000000E+00
  1.81777048E-01  2.06217356E-03 -8.26071554E-04  3.80943820E-03  0.00000000E+00
 -1.56787365E-03 -5.79580942E-03 -1.56787365E-03 -2.15281660E-01 -9.49816745E-03
 -3.49752627E-04 -3.24530689E-04  0.00000000E+00  1.36353616E-02  2.77579132E-03
 -9.36668923E-04 -1.02546593E-03  0.00000000E+00 -1.44078563E-04  1.87237167E-03
 -1.85032911E-04 -2.15281660E-01 -9.49816745E-03  3.49752627E-04  3.24530689E-04
  0.00000000E+00  1.87237167E-03  1.36353616E-02  2.77579132E-03  9.36668923E-04
  1.02546593E-03  0.00000000E+00 -1.44078563E-04 -1.85032911E-04  6.41424387E-01
  2.65456803E-02 -4.83574515E-04 -7.65401392E-04  0.00000000E+00 -5.79580942E-03
 -1.01995893E-02  5.31420866E-03  9.27715177E-04 -3.91149360E-03  0.00000000E+00
  6.28247630E-03 -2.05290677E-04  5.95814208E-05 -1.39355322E-04  0.00000000E+00
  3.28306721E-02  1.49785708E-03  2.41670638E-05  4.42942540E-05  0.00000000E+00
  1.01995893E-02 -5.31420866E-03  9.27715177E-04 -3.91149360E-03  0.00000000E+00
 -6.28247630E-03  2.05290677E-04  5.95814208E-05 -1.39355322E-04  0.00000000E+00
  9.63842793E-05 -2.99148046E-04 -9.63842793E-05  6.97052699E-01  3.12528098E-02
  1.11882474E-03  1.25229593E-03  0.00000000E+00 -5.95713826E-02 -9.89611069E-03
  3.01216343E-03  3.61611087E-03  0.00000000E+00  6.61310559E-04 -6.32488862E-03
  6.78566077E-04 -6.97052699E-01 -3.12528098E-02  1.11882474E-03  1.25229593E-03
  0.00000000E+00  6.32488862E-03  5.95713826E-02  9.89611069E-03  3.01216343E-03
  3.61611087E-03  0.00000000E+00 -6.61310559E-04 -6.78566077E-04 -3.28306721E-02
 -1.49785708E-03  2.41670638E-05  4.42942540E-05  0.00000000E+00  2.99148046E-04
  1.28140444E-02 -7.05317774E-03 -1.28673105E-03  2.81292728E-03  0.00000000E+00
  6.32302239E-02  9.75960580E-04  1.85611839E-04 -1.35380735E-03  0.00000000E+00
  2.06244033E-01  8.51684351E-03  3.47495763E-05  3.52394959E-04  0.00000000E+00