 Entering Gaussian System, Link 0=g09
 Initial command:
 /share/apps/g09/l1.exe /state/partition1/adam-11599/Gau-4055.inp -scrdir=/state/partition1/adam-11599/
 Entering Link 1 = /share/apps/g09/l1.exe PID=      4056.
  
 Copyright (c) 1988,1990,1992,1993,1995,1998,2003,2009, Gaussian, Inc.
                  All Rights Reserved.
  
 This is part of the Gaussian(R) 09 program.  It is based on
 the Gaussian(R) 03 system (copyright 2003, Gaussian, Inc.),
 the Gaussian(R) 98 system (copyright 1998, Gaussian, Inc.),
 the Gaussian(R) 94 system (copyright 1995, Gaussian, Inc.),
 the Gaussian 92(TM) system (copyright 1992, Gaussian, Inc.),
 the Gaussian 90(TM) system (copyright 1990, Gaussian, Inc.),
 the Gaussian 88(TM) system (copyright 1988, Gaussian, Inc.),
 the Gaussian 86(TM) system (copyright 1986, Carnegie Mellon
 University), and the Gaussian 82(TM) system (copyright 1983,
 Carnegie Mellon University). Gaussian is a federally registered
 trademark of Gaussian, Inc.
  
 This software contains proprietary and confidential information,
 including trade secrets, belonging to Gaussian, Inc.
  
 This software is provided under written license and may be
 used, copied, transmitted, or stored only in accord with that
 written license.
  
 The following legend is applicable only to US Government
 contracts under FAR:
  
                    RESTRICTED RIGHTS LEGEND
  
 Use, reproduction and disclosure by the US Government is
 subject to restrictions as set forth in subparagraphs (a)
 and (c) of the Commercial Computer Software - Restricted
 Rights clause in FAR 52.227-19.
  
 Gaussian, Inc.
 340 Quinnipiac St., Bldg. 40, Wallingford CT 06492
  
  
 ---------------------------------------------------------------
 Warning -- This program may not be used in any manner that
 competes with the business of Gaussian, Inc. or will provide
 assistance to any competitor of Gaussian, Inc.  The licensee
 of this program is prohibited from giving any competitor of
 Gaussian, Inc. access to this program.  By using this program,
 the user acknowledges that Gaussian, Inc. is engaged in the
 business of creating and licensing software in the field of
 computational chemistry and represents and warrants to the
 licensee that it is not a competitor of Gaussian, Inc. and that
 it will not use this program in any manner prohibited above.
 ---------------------------------------------------------------
  

 Cite this work as:
 Gaussian 09, Revision A.02,
 M. J. Frisch, G. W. Trucks, H. B. Schlegel, G. E. Scuseria, 
 M. A. Robb, J. R. Cheeseman, G. Scalmani, V. Barone, B. Mennucci, 
 G. A. Petersson, H. Nakatsuji, M. Caricato, X. Li, H. P. Hratchian, 
 A. F. Izmaylov, J. Bloino, G. Zheng, J. L. Sonnenberg, M. Hada, 
 M. Ehara, K. Toyota, R. Fukuda, J. Hasegawa, M. Ishida, T. Nakajima, 
 Y. Honda, O. Kitao, H. Nakai, T. Vreven, J. A. Montgomery, Jr., 
 J. E. Peralta, F. Ogliaro, M. Bearpark, J. J. Heyd, E. Brothers, 
 K. N. Kudin, V. N. Staroverov, R. Kobayashi, J. Normand, 
 K. Raghavachari, A. Rendell, J. C. Burant, S. S. Iyengar, J. Tomasi, 
 M. Cossi, N. Rega, J. M. Millam, M. Klene, J. E. Knox, J. B. Cross, 
 V. Bakken, C. Adamo, J. Jaramillo, R. Gomperts, R. E. Stratmann, 
 O. Yazyev, A. J. Austin, R. Cammi, C. Pomelli, J. W. Ochterski, 
 R. L. Martin, K. Morokuma, V. G. Zakrzewski, G. A. Voth, 
 P. Salvador, J. J. Dannenberg, S. Dapprich, A. D. Daniels, 
 O. Farkas, J. B. Foresman, J. V. Ortiz, J. Cioslowski, 
 and D. J. Fox, Gaussian, Inc., Wallingford CT, 2009.
 
 ******************************************
 Gaussian 09:  IA32L-G09RevA.02 11-Jun-2009
                24-Jan-2014 
 ******************************************
 %chk=PhCCCC.chk
 %mem=100MB
 %nproc=4
 Will use up to    4 processors via shared memory.
 --------------------------------
 #p b3lyp/sto-3g opt=modredundant
 --------------------------------
 1/14=-1,18=120,19=15,26=3,38=1/1,3;
 2/9=110,12=2,17=6,18=5,40=1/2;
 3/6=3,11=2,16=1,25=1,30=1,71=1,74=-5/1,2,3;
 4//1;
 5/5=2,38=5/2;
 6/7=2,8=2,9=2,10=2,28=1/1;
 7//1,2,3,16;
 1/14=-1,18=20,19=15/3(2);
 2/9=110/2;
 99//99;
 2/9=110/2;
 3/6=3,11=2,16=1,25=1,30=1,71=1,74=-5/1,2,3;
 4/5=5,16=3/1;
 5/5=2,38=5/2;
 7//1,2,3,16;
 1/14=-1,18=20,19=15/3(-5);
 2/9=110/2;
 6/7=2,8=2,9=2,10=2,19=2,28=1/1;
 99/9=1/99;
 Leave Link    1 at Fri Jan 24 09:25:13 2014, MaxMem=   13107200 cpu:       0.2
 (Enter /share/apps/g09/l101.exe)
 -----------------
 DVB scan dihedral
 -----------------
 Symbolic Z-matrix:
 Charge =  0 Multiplicity = 1
 C                     0.26948  -1.41009   0. 
 C                    -1.06475  -0.9207    0. 
 C                    -1.32543   0.45703   0. 
 C                    -0.26948   1.41009   0. 
 C                     1.06475   0.9207    0. 
 H                    -1.90444  -1.6276    0. 
 H                    -2.36477   0.81317   0. 
 H                     1.90444   1.6276    0. 
 C                    -0.60373   2.86992   0. 
 C                     0.26948   3.89195   0. 
 H                     1.35517   3.74201   0. 
 H                    -1.6819    3.09      0. 
 H                    -0.07403   4.93297   0. 
 C                     0.60373  -2.86992   0. 
 H                     1.6819   -3.09      0. 
 C                    -0.26948  -3.89195   0. 
 H                    -1.35517  -3.74201   0. 
 H                     0.07403  -4.93297   0. 
 C                     1.32543  -0.45703   0. 
 H                     2.36477  -0.81317   0. 
 
 NAtoms=     20 NQM=     20 NQMF=      0 NMic=      0 NMicF=      0 NTot=     20.
 The following ModRedundant input section has been read:
 D    3    4    9   10 S  12 30.000                                            
                    Isotopes and Nuclear Properties:
 (Nuclear quadrupole moments (NQMom) in fm**2, nuclear magnetic moments (NMagM)
  in nuclear magnetons)

  Atom         1           2           3           4           5           6           7           8           9          10
 IAtWgt=          12          12          12          12          12           1           1           1          12          12
 AtmWgt=  12.0000000  12.0000000  12.0000000  12.0000000  12.0000000   1.0078250   1.0078250   1.0078250  12.0000000  12.0000000
 NucSpn=           0           0           0           0           0           1           1           1           0           0
 AtZEff=   0.0000000   0.0000000   0.0000000   0.0000000   0.0000000   0.0000000   0.0000000   0.0000000   0.0000000   0.0000000
 NQMom=    0.0000000   0.0000000   0.0000000   0.0000000   0.0000000   0.0000000   0.0000000   0.0000000   0.0000000   0.0000000
 NMagM=    0.0000000   0.0000000   0.0000000   0.0000000   0.0000000   2.7928460   2.7928460   2.7928460   0.0000000   0.0000000

  Atom        11          12          13          14          15          16          17          18          19          20
 IAtWgt=           1           1           1          12           1          12           1           1          12           1
 AtmWgt=   1.0078250   1.0078250   1.0078250  12.0000000   1.0078250  12.0000000   1.0078250   1.0078250  12.0000000   1.0078250
 NucSpn=           1           1           1           0           1           0           1           1           0           1
 AtZEff=   0.0000000   0.0000000   0.0000000   0.0000000   0.0000000   0.0000000   0.0000000   0.0000000   0.0000000   0.0000000
 NQMom=    0.0000000   0.0000000   0.0000000   0.0000000   0.0000000   0.0000000   0.0000000   0.0000000   0.0000000   0.0000000
 NMagM=    2.7928460   2.7928460   2.7928460   0.0000000   2.7928460   0.0000000   2.7928460   2.7928460   0.0000000   2.7928460
 Leave Link  101 at Fri Jan 24 09:25:13 2014, MaxMem=   13107200 cpu:       0.4
 (Enter /share/apps/g09/l103.exe)

 GradGradGradGradGradGradGradGradGradGradGradGradGradGradGradGradGradGrad
 Berny optimization.
 Initialization pass.
                           ----------------------------
                           !    Initial Parameters    !
                           ! (Angstroms and Degrees)  !
 --------------------------                            --------------------------
 ! Name  Definition              Value          Derivative Info.                !
 --------------------------------------------------------------------------------
 ! R1    R(1,2)                  1.4212         estimate D2E/DX2                !
 ! R2    R(1,14)                 1.4976         estimate D2E/DX2                !
 ! R3    R(1,19)                 1.4224         estimate D2E/DX2                !
 ! R4    R(2,3)                  1.4022         estimate D2E/DX2                !
 ! R5    R(2,6)                  1.0976         estimate D2E/DX2                !
 ! R6    R(3,4)                  1.4224         estimate D2E/DX2                !
 ! R7    R(3,7)                  1.0987         estimate D2E/DX2                !
 ! R8    R(4,5)                  1.4212         estimate D2E/DX2                !
 ! R9    R(4,9)                  1.4976         estimate D2E/DX2                !
 ! R10   R(5,8)                  1.0976         estimate D2E/DX2                !
 ! R11   R(5,19)                 1.4022         estimate D2E/DX2                !
 ! R12   R(9,10)                 1.3443         estimate D2E/DX2                !
 ! R13   R(9,12)                 1.1004         estimate D2E/DX2                !
 ! R14   R(10,11)                1.096          estimate D2E/DX2                !
 ! R15   R(10,13)                1.0962         estimate D2E/DX2                !
 ! R16   R(14,15)                1.1004         estimate D2E/DX2                !
 ! R17   R(14,16)                1.3443         estimate D2E/DX2                !
 ! R18   R(16,17)                1.096          estimate D2E/DX2                !
 ! R19   R(16,18)                1.0962         estimate D2E/DX2                !
 ! R20   R(19,20)                1.0987         estimate D2E/DX2                !
 ! A1    A(2,1,14)             123.0393         estimate D2E/DX2                !
 ! A2    A(2,1,19)             117.789          estimate D2E/DX2                !
 ! A3    A(14,1,19)            119.1718         estimate D2E/DX2                !
 ! A4    A(1,2,3)              120.8571         estimate D2E/DX2                !
 ! A5    A(1,2,6)              119.7645         estimate D2E/DX2                !
 ! A6    A(3,2,6)              119.3784         estimate D2E/DX2                !
 ! A7    A(2,3,4)              121.3539         estimate D2E/DX2                !
 ! A8    A(2,3,7)              119.6288         estimate D2E/DX2                !
 ! A9    A(4,3,7)              119.0173         estimate D2E/DX2                !
 ! A10   A(3,4,5)              117.789          estimate D2E/DX2                !
 ! A11   A(3,4,9)              119.1718         estimate D2E/DX2                !
 ! A12   A(5,4,9)              123.0393         estimate D2E/DX2                !
 ! A13   A(4,5,8)              119.7645         estimate D2E/DX2                !
 ! A14   A(4,5,19)             120.8571         estimate D2E/DX2                !
 ! A15   A(8,5,19)             119.3784         estimate D2E/DX2                !
 ! A16   A(4,9,10)             126.5934         estimate D2E/DX2                !
 ! A17   A(4,9,12)             114.4334         estimate D2E/DX2                !
 ! A18   A(10,9,12)            118.9732         estimate D2E/DX2                !
 ! A19   A(9,10,11)            122.647          estimate D2E/DX2                !
 ! A20   A(9,10,13)            121.2283         estimate D2E/DX2                !
 ! A21   A(11,10,13)           116.1247         estimate D2E/DX2                !
 ! A22   A(1,14,15)            114.4334         estimate D2E/DX2                !
 ! A23   A(1,14,16)            126.5934         estimate D2E/DX2                !
 ! A24   A(15,14,16)           118.9732         estimate D2E/DX2                !
 ! A25   A(14,16,17)           122.647          estimate D2E/DX2                !
 ! A26   A(14,16,18)           121.2283         estimate D2E/DX2                !
 ! A27   A(17,16,18)           116.1247         estimate D2E/DX2                !
 ! A28   A(1,19,5)             121.3539         estimate D2E/DX2                !
 ! A29   A(1,19,20)            119.0173         estimate D2E/DX2                !
 ! A30   A(5,19,20)            119.6288         estimate D2E/DX2                !
 ! D1    D(14,1,2,3)           180.0            estimate D2E/DX2                !
 ! D2    D(14,1,2,6)             0.0            estimate D2E/DX2                !
 ! D3    D(19,1,2,3)             0.0            estimate D2E/DX2                !
 ! D4    D(19,1,2,6)           180.0            estimate D2E/DX2                !
 ! D5    D(2,1,14,15)          180.0            estimate D2E/DX2                !
 ! D6    D(2,1,14,16)            0.0            estimate D2E/DX2                !
 ! D7    D(19,1,14,15)           0.0            estimate D2E/DX2                !
 ! D8    D(19,1,14,16)         180.0            estimate D2E/DX2                !
 ! D9    D(2,1,19,5)             0.0            estimate D2E/DX2                !
 ! D10   D(2,1,19,20)          180.0            estimate D2E/DX2                !
 ! D11   D(14,1,19,5)          180.0            estimate D2E/DX2                !
 ! D12   D(14,1,19,20)           0.0            estimate D2E/DX2                !
 ! D13   D(1,2,3,4)              0.0            estimate D2E/DX2                !
 ! D14   D(1,2,3,7)            180.0            estimate D2E/DX2                !
 ! D15   D(6,2,3,4)            180.0            estimate D2E/DX2                !
 ! D16   D(6,2,3,7)              0.0            estimate D2E/DX2                !
 ! D17   D(2,3,4,5)              0.0            estimate D2E/DX2                !
 ! D18   D(2,3,4,9)            180.0            estimate D2E/DX2                !
 ! D19   D(7,3,4,5)            180.0            estimate D2E/DX2                !
 ! D20   D(7,3,4,9)              0.0            estimate D2E/DX2                !
 ! D21   D(3,4,5,8)            180.0            estimate D2E/DX2                !
 ! D22   D(3,4,5,19)             0.0            estimate D2E/DX2                !
 ! D23   D(9,4,5,8)              0.0            estimate D2E/DX2                !
 ! D24   D(9,4,5,19)           180.0            estimate D2E/DX2                !
 ! D25   D(3,4,9,10)           180.0            Scan                            !
 ! D26   D(3,4,9,12)             0.0            estimate D2E/DX2                !
 ! D27   D(5,4,9,10)             0.0            estimate D2E/DX2                !
 ! D28   D(5,4,9,12)           180.0            estimate D2E/DX2                !
 ! D29   D(4,5,19,1)             0.0            estimate D2E/DX2                !
 ! D30   D(4,5,19,20)          180.0            estimate D2E/DX2                !
 ! D31   D(8,5,19,1)           180.0            estimate D2E/DX2                !
 ! D32   D(8,5,19,20)            0.0            estimate D2E/DX2                !
 ! D33   D(4,9,10,11)            0.0            estimate D2E/DX2                !
 ! D34   D(4,9,10,13)          180.0            estimate D2E/DX2                !
 ! D35   D(12,9,10,11)         180.0            estimate D2E/DX2                !
 ! D36   D(12,9,10,13)           0.0            estimate D2E/DX2                !
 ! D37   D(1,14,16,17)           0.0            estimate D2E/DX2                !
 ! D38   D(1,14,16,18)         180.0            estimate D2E/DX2                !
 ! D39   D(15,14,16,17)        180.0            estimate D2E/DX2                !
 ! D40   D(15,14,16,18)          0.0            estimate D2E/DX2                !
 --------------------------------------------------------------------------------
 Trust Radius=3.00D-01 FncErr=1.00D-07 GrdErr=1.00D-06
 Number of optimizations in scan=  13
 Number of steps in this run= 100 maximum allowed number of steps= 120.
 GradGradGradGradGradGradGradGradGradGradGradGradGradGradGradGradGradGrad

 Leave Link  103 at Fri Jan 24 09:25:14 2014, MaxMem=   13107200 cpu:       0.1
 (Enter /share/apps/g09/l202.exe)
                          Input orientation:                          
 ---------------------------------------------------------------------
 Center     Atomic      Atomic             Coordinates (Angstroms)
 Number     Number       Type             X           Y           Z
 ---------------------------------------------------------------------
      1          6           0        0.269480   -1.410090    0.000000
      2          6           0       -1.064750   -0.920700    0.000000
      3          6           0       -1.325430    0.457030    0.000000
      4          6           0       -0.269480    1.410090    0.000000
      5          6           0        1.064750    0.920700    0.000000
      6          1           0       -1.904440   -1.627600    0.000000
      7          1           0       -2.364770    0.813170    0.000000
      8          1           0        1.904440    1.627600    0.000000
      9          6           0       -0.603730    2.869920    0.000000
     10          6           0        0.269480    3.891950    0.000000
     11          1           0        1.355170    3.742010    0.000000
     12          1           0       -1.681900    3.090000    0.000000
     13          1           0       -0.074030    4.932970    0.000000
     14          6           0        0.603730   -2.869920    0.000000
     15          1           0        1.681900   -3.090000    0.000000
     16          6           0       -0.269480   -3.891950    0.000000
     17          1           0       -1.355170   -3.742010    0.000000
     18          1           0        0.074030   -4.932970    0.000000
     19          6           0        1.325430   -0.457030    0.000000
     20          1           0        2.364770   -0.813170    0.000000
 ---------------------------------------------------------------------
                    Distance matrix (angstroms):
                    1          2          3          4          5
     1  C    0.000000
     2  C    1.421152   0.000000
     3  C    2.455580   1.402175   0.000000
     4  C    2.871218   2.462729   1.422446   0.000000
     5  C    2.462729   2.815231   2.434738   1.421152   0.000000
     6  H    2.184774   1.097628   2.163547   3.449733   3.912790
     7  H    3.447051   2.167108   1.098664   2.178659   3.431205
     8  H    3.449733   3.912790   3.435447   2.184774   1.097628
     9  C    4.368178   3.818552   2.518509   1.497607   2.565791
    10  C    5.302040   4.994174   3.787138   2.539706   3.075838
    11  H    5.265250   5.253273   4.239895   2.842066   2.836218
    12  H    4.904966   4.057904   2.656991   2.194773   3.499993
    13  H    6.352355   5.936917   4.647584   3.528298   4.170747
    14  C    1.497607   2.565791   3.845810   4.368178   3.818552
    15  H    2.194773   3.499993   4.650318   4.904966   4.057904
    16  C    2.539706   3.075838   4.475339   5.302040   4.994174
    17  H    2.842066   2.836218   4.199145   5.265250   5.253273
    18  H    3.528298   4.170747   5.568715   6.352355   5.936917
    19  C    1.422446   2.434738   2.804026   2.455580   1.402175
    20  H    2.178659   3.431205   3.902689   3.447051   2.167108
                    6          7          8          9         10
     6  H    0.000000
     7  H    2.483800   0.000000
     8  H    5.010379   4.346200   0.000000
     9  C    4.681830   2.707671   2.798978   0.000000
    10  C    5.932231   4.051933   2.792915   1.344262   0.000000
    11  H    6.281542   4.734560   2.184589   2.144255   1.095995
    12  H    4.722846   2.377029   3.873041   1.100403   2.109741
    13  H    6.811129   4.713835   3.852248   2.129967   1.096231
    14  C    2.798978   4.730449   4.681830   5.865469   6.770126
    15  H    3.873041   5.622301   4.722846   6.383162   7.123381
    16  C    2.792915   5.150572   5.932231   6.770126   7.802537
    17  H    2.184589   4.665721   6.281542   6.654493   7.804924
    18  H    3.852248   6.242265   6.811129   7.832270   8.827084
    19  C    3.435447   3.902689   2.163547   3.845810   4.475339
    20  H    4.346200   5.001353   2.483800   4.730449   5.150572
                   11         12         13         14         15
    11  H    0.000000
    12  H    3.106270   0.000000
    13  H    1.860376   2.445769   0.000000
    14  C    6.654493   6.383162   7.832270   0.000000
    15  H    6.839818   7.036160   8.212876   1.100403   0.000000
    16  C    7.804924   7.123381   8.827084   1.344262   2.109741
    17  H    7.959680   6.839818   8.769071   2.144255   3.106270
    18  H    8.769071   8.212876   9.867051   2.129967   2.445769
    19  C    4.199145   4.650318   5.568715   2.518509   2.656991
    20  H    4.665721   5.622301   6.242265   2.707671   2.377029
                   16         17         18         19         20
    16  C    0.000000
    17  H    1.095995   0.000000
    18  H    1.096231   1.860376   0.000000
    19  C    3.787138   4.239895   4.647584   0.000000
    20  H    4.051933   4.734560   4.713835   1.098664   0.000000
 Stoichiometry    C10H10
 Framework group  C2H[SGH(C10H10)]
 Deg. of freedom    19
 Full point group                 C2H     NOp   4
 Largest Abelian subgroup         C2H     NOp   4
 Largest concise Abelian subgroup C2      NOp   2
                         Standard orientation:                         
 ---------------------------------------------------------------------
 Center     Atomic      Atomic             Coordinates (Angstroms)
 Number     Number       Type             X           Y           Z
 ---------------------------------------------------------------------
      1          6           0        0.269480   -1.410090    0.000000
      2          6           0       -1.064750   -0.920700    0.000000
      3          6           0       -1.325430    0.457030    0.000000
      4          6           0       -0.269480    1.410090    0.000000
      5          6           0        1.064750    0.920700    0.000000
      6          1           0       -1.904440   -1.627600    0.000000
      7          1           0       -2.364770    0.813170    0.000000
      8          1           0        1.904440    1.627600    0.000000
      9          6           0       -0.603730    2.869920    0.000000
     10          6           0        0.269480    3.891950    0.000000
     11          1           0        1.355170    3.742010    0.000000
     12          1           0       -1.681900    3.090000    0.000000
     13          1           0       -0.074030    4.932970    0.000000
     14          6           0        0.603730   -2.869920    0.000000
     15          1           0        1.681900   -3.090000    0.000000
     16          6           0       -0.269480   -3.891950    0.000000
     17          1           0       -1.355170   -3.742010    0.000000
     18          1           0        0.074030   -4.932970    0.000000
     19          6           0        1.325430   -0.457030    0.000000
     20          1           0        2.364770   -0.813170    0.000000
 ---------------------------------------------------------------------
 Rotational constants (GHZ):      4.6265078      0.6849394      0.5966128
 Leave Link  202 at Fri Jan 24 09:25:14 2014, MaxMem=   13107200 cpu:       0.0
 (Enter /share/apps/g09/l301.exe)
 Standard basis: STO-3G (5D, 7F)
 Ernie: Thresh=  0.10000D-02 Tol=  0.10000D-05 Strict=F.
 There are    25 symmetry adapted basis functions of AG  symmetry.
 There are     5 symmetry adapted basis functions of BG  symmetry.
 There are     5 symmetry adapted basis functions of AU  symmetry.
 There are    25 symmetry adapted basis functions of BU  symmetry.
 Integral buffers will be    262144 words long.
 Raffenetti 2 integral format.
 Two-electron integral symmetry is turned on.
    60 basis functions,   180 primitive gaussians,    60 cartesian basis functions
    35 alpha electrons       35 beta electrons
       nuclear repulsion energy       445.8994788941 Hartrees.
 IExCor=  402 DFT=T Ex+Corr=B3LYP ExCW=0 ScaHFX=  0.200000
 ScaDFX=  0.800000  0.720000  1.000000  0.810000 ScalE2=  1.000000  1.000000
 IRadAn=      0 IRanWt=     -1 IRanGd=            0 ICorTp=0
 NAtoms=   20 NActive=   20 NUniq=   10 SFac= 3.00D+00 NAtFMM=   80 NAOKFM=F Big=F
 Leave Link  301 at Fri Jan 24 09:25:14 2014, MaxMem=   13107200 cpu:       0.8
 (Enter /share/apps/g09/l302.exe)
 NPDir=0 NMtPBC=     1 NCelOv=     1 NCel=       1 NClECP=     1 NCelD=      1
         NCelK=      1 NCelE2=     1 NClLst=     1 CellRange=     0.0.
 One-electron integrals computed using PRISM.
 One-electron integral symmetry used in STVInt
 NBasis=    60 RedAO= T  NBF=    25     5     5    25
 NBsUse=    60 1.00D-06 NBFU=    25     5     5    25
 Precomputing XC quadrature grid using
 IXCGrd= 2 IRadAn=           0 IRanWt=          -1 IRanGd=           0 AccXCQ= 1.00D-10.
 NRdTot=    1260 NPtTot=      160388 NUsed=      166270 NTot=      166286
 NSgBfM=    59    59    59    59    59 NAtAll=    20    20.
 Leave Link  302 at Fri Jan 24 09:25:16 2014, MaxMem=   13107200 cpu:       2.3
 (Enter /share/apps/g09/l303.exe)
 DipDrv:  MaxL=1.
 Leave Link  303 at Fri Jan 24 09:25:17 2014, MaxMem=   13107200 cpu:       1.1
 (Enter /share/apps/g09/l401.exe)
 Harris functional with IExCor=  402 diagonalized for initial guess.
 ExpMin= 1.69D-01 ExpMax= 7.16D+01 ExpMxC= 7.16D+01 IAcc=1 IRadAn=         1 AccDes= 0.00D+00
 HarFok:  IExCor=  402 AccDes= 0.00D+00 IRadAn=         1 IDoV= 1
 ScaDFX=  1.000000  1.000000  1.000000  1.000000
 FoFCou: FMM=F IPFlag=           0 FMFlag=      100000 FMFlg1=           0
         NFxFlg=           0 DoJE=T BraDBF=F KetDBF=T FulRan=T
         Omega=  0.000000  0.000000  1.000000  0.000000  0.000000 ICntrl=     500 IOpCl=  0
         NMat0=    1 NMatS0=    1 NMatT0=    0 NMatD0=    1 NMtDS0=    0 NMtDT0=    0
         I1Cent=           4 NGrid=           0.
 Petite list used in FoFCou.
 Harris En= -382.238123470561    
 Initial guess orbital symmetries:
       Occupied  (BU) (AG) (BU) (AG) (BU) (AG) (BU) (AG) (BU) (AG)
                 (AG) (BU) (AG) (BU) (BU) (AG) (AG) (BU) (AG) (AG)
                 (BU) (BU) (AG) (BU) (BU) (BU) (AG) (AU) (BU) (AG)
                 (AG) (BG) (AU) (BG) (BG)
       Virtual   (AU) (AU) (BG) (AU) (BG) (AG) (BU) (BU) (AG) (AG)
                 (BU) (BU) (AG) (BU) (AG) (AG) (BU) (AG) (BU) (BU)
                 (AG) (AG) (BU) (AG) (BU)
 The electronic state of the initial guess is 1-AG.
 Leave Link  401 at Fri Jan 24 09:25:18 2014, MaxMem=   13107200 cpu:       2.6
 (Enter /share/apps/g09/l502.exe)
 Closed shell SCF:
 Requested convergence on RMS density matrix=1.00D-08 within 128 cycles.
 Requested convergence on MAX density matrix=1.00D-06.
 Requested convergence on             energy=1.00D-06.
 No special actions if energy rises.
 Using DIIS extrapolation, IDIIS=  1040.
 Integral symmetry usage will be decided dynamically.
       166098 words used for storage of precomputed grid.
 Keep R1 ints in memory in canonical form, NReq=2748612.
 IEnd=      195864 IEndB=      195864 NGot=    13107200 MDV=    11256244
 LenX=    11256244 LenY=    11252203
 Symmetry not used in FoFDir.
 MinBra= 0 MaxBra= 1 Meth= 1.
 IRaf=       0 NMat=   1 IRICut=       1 DoRegI=T DoRafI=F ISym2E= 0 JSym2E=0.
 Integral accuracy reduced to 1.0D-05 until final iterations.

 Cycle   1  Pass 0  IDiag  1:
 E= -382.248643309654    
 DIIS: error= 1.89D-02 at cycle   1 NSaved=   1.
 NSaved= 1 IEnMin= 1 EnMin= -382.248643309654     IErMin= 1 ErrMin= 1.89D-02
 ErrMax= 1.89D-02 EMaxC= 1.00D-01 BMatC= 4.26D-02 BMatP= 4.26D-02
 IDIUse=3 WtCom= 8.11D-01 WtEn= 1.89D-01
 Coeff-Com:  0.100D+01
 Coeff-En:   0.100D+01
 Coeff:      0.100D+01
 Gap=     0.191 Goal=   None    Shift=    0.000
 GapD=    0.191 DampG=1.000 DampE=0.500 DampFc=0.5000 IDamp=-1.
 Damping current iteration by 5.00D-01
 RMSDP=8.25D-03 MaxDP=9.90D-02              OVMax= 4.39D-02

 Cycle   2  Pass 0  IDiag  1:
 E= -382.280642639259     Delta-E=       -0.031999329605 Rises=F Damp=T
 DIIS: error= 4.99D-03 at cycle   2 NSaved=   2.
 NSaved= 2 IEnMin= 2 EnMin= -382.280642639259     IErMin= 2 ErrMin= 4.99D-03
 ErrMax= 4.99D-03 EMaxC= 1.00D-01 BMatC= 3.24D-03 BMatP= 4.26D-02
 IDIUse=3 WtCom= 9.50D-01 WtEn= 4.99D-02
 Coeff-Com: -0.201D+00 0.120D+01
 Coeff-En:   0.000D+00 0.100D+01
 Coeff:     -0.191D+00 0.119D+01
 Gap=     0.191 Goal=   None    Shift=    0.000
 RMSDP=2.24D-03 MaxDP=4.15D-02 DE=-3.20D-02 OVMax= 5.63D-02

 Cycle   3  Pass 0  IDiag  1:
 E= -382.303034988483     Delta-E=       -0.022392349224 Rises=F Damp=F
 DIIS: error= 9.47D-03 at cycle   3 NSaved=   3.
 NSaved= 3 IEnMin= 3 EnMin= -382.303034988483     IErMin= 2 ErrMin= 4.99D-03
 ErrMax= 9.47D-03 EMaxC= 1.00D-01 BMatC= 4.05D-03 BMatP= 3.24D-03
 IDIUse=3 WtCom= 9.32D-02 WtEn= 9.07D-01
 Coeff-Com: -0.168D+00 0.742D+00 0.426D+00
 Coeff-En:   0.000D+00 0.000D+00 0.100D+01
 Coeff:     -0.157D-01 0.691D-01 0.947D+00
 Gap=     0.190 Goal=   None    Shift=    0.000
 RMSDP=3.49D-03 MaxDP=8.60D-02 DE=-2.24D-02 OVMax= 6.85D-02

 Cycle   4  Pass 0  IDiag  1:
 E= -382.292817396672     Delta-E=        0.010217591811 Rises=F Damp=F
 DIIS: error= 1.68D-02 at cycle   4 NSaved=   4.
 NSaved= 4 IEnMin= 3 EnMin= -382.303034988483     IErMin= 2 ErrMin= 4.99D-03
 ErrMax= 1.68D-02 EMaxC= 1.00D-01 BMatC= 1.21D-02 BMatP= 3.24D-03
 IDIUse=2 WtCom= 0.00D+00 WtEn= 1.00D+00
 Coeff-En:   0.000D+00 0.000D+00 0.703D+00 0.297D+00
 Coeff:      0.000D+00 0.000D+00 0.703D+00 0.297D+00
 Gap=     0.190 Goal=   None    Shift=    0.000
 RMSDP=1.75D-03 MaxDP=4.33D-02 DE= 1.02D-02 OVMax= 3.32D-02

 Cycle   5  Pass 0  IDiag  1:
 E= -382.307585949516     Delta-E=       -0.014768552844 Rises=F Damp=F
 DIIS: error= 3.41D-03 at cycle   5 NSaved=   5.
 NSaved= 5 IEnMin= 5 EnMin= -382.307585949516     IErMin= 5 ErrMin= 3.41D-03
 ErrMax= 3.41D-03 EMaxC= 1.00D-01 BMatC= 5.18D-04 BMatP= 3.24D-03
 IDIUse=3 WtCom= 9.66D-01 WtEn= 3.41D-02
 Coeff-Com:  0.898D-02-0.192D-01 0.324D+00 0.668D-01 0.619D+00
 Coeff-En:   0.000D+00 0.000D+00 0.134D+00 0.000D+00 0.866D+00
 Coeff:      0.867D-02-0.185D-01 0.318D+00 0.645D-01 0.627D+00
 Gap=     0.190 Goal=   None    Shift=    0.000
 RMSDP=4.71D-04 MaxDP=1.13D-02 DE=-1.48D-02 OVMax= 8.67D-03

 Cycle   6  Pass 0  IDiag  1:
 E= -382.308246775081     Delta-E=       -0.000660825565 Rises=F Damp=F
 DIIS: error= 1.10D-04 at cycle   6 NSaved=   6.
 NSaved= 6 IEnMin= 6 EnMin= -382.308246775081     IErMin= 6 ErrMin= 1.10D-04
 ErrMax= 1.10D-04 EMaxC= 1.00D-01 BMatC= 4.83D-07 BMatP= 5.18D-04
 IDIUse=3 WtCom= 9.99D-01 WtEn= 1.10D-03
 Coeff-Com:  0.201D-02-0.476D-02 0.818D-01 0.128D-01 0.196D+00 0.713D+00
 Coeff-En:   0.000D+00 0.000D+00 0.000D+00 0.000D+00 0.000D+00 0.100D+01
 Coeff:      0.201D-02-0.475D-02 0.817D-01 0.128D-01 0.195D+00 0.713D+00
 Gap=     0.190 Goal=   None    Shift=    0.000
 RMSDP=1.44D-05 MaxDP=2.73D-04 DE=-6.61D-04 OVMax= 1.93D-04

 Cycle   7  Pass 0  IDiag  1:
 E= -382.308247355023     Delta-E=       -0.000000579942 Rises=F Damp=F
 DIIS: error= 1.05D-05 at cycle   7 NSaved=   7.
 NSaved= 7 IEnMin= 7 EnMin= -382.308247355023     IErMin= 7 ErrMin= 1.05D-05
 ErrMax= 1.05D-05 EMaxC= 1.00D-01 BMatC= 8.49D-09 BMatP= 4.83D-07
 IDIUse=1 WtCom= 1.00D+00 WtEn= 0.00D+00
 Coeff-Com: -0.135D-03 0.142D-03-0.118D-02-0.187D-02 0.135D-01 0.291D+00
 Coeff-Com:  0.699D+00
 Coeff:     -0.135D-03 0.142D-03-0.118D-02-0.187D-02 0.135D-01 0.291D+00
 Coeff:      0.699D+00
 Gap=     0.191 Goal=   None    Shift=    0.000
 RMSDP=2.46D-06 MaxDP=2.45D-05 DE=-5.80D-07 OVMax= 1.63D-05

 Initial convergence to 1.0D-05 achieved.  Increase integral accuracy.
 Cycle   8  Pass 1  IDiag  1:
 E= -382.308266576983     Delta-E=       -0.000019221959 Rises=F Damp=F
 DIIS: error= 4.71D-06 at cycle   1 NSaved=   1.
 NSaved= 1 IEnMin= 1 EnMin= -382.308266576983     IErMin= 1 ErrMin= 4.71D-06
 ErrMax= 4.71D-06 EMaxC= 1.00D-01 BMatC= 9.31D-10 BMatP= 9.31D-10
 IDIUse=1 WtCom= 1.00D+00 WtEn= 0.00D+00
 Coeff-Com:  0.100D+01
 Coeff:      0.100D+01
 Gap=     0.191 Goal=   None    Shift=    0.000
 RMSDP=2.46D-06 MaxDP=2.45D-05 DE=-1.92D-05 OVMax= 1.36D-06

 Cycle   9  Pass 1  IDiag  1:
 E= -382.308266578090     Delta-E=       -0.000000001107 Rises=F Damp=F
 DIIS: error= 2.99D-06 at cycle   2 NSaved=   2.
 NSaved= 2 IEnMin= 2 EnMin= -382.308266578090     IErMin= 2 ErrMin= 2.99D-06
 ErrMax= 2.99D-06 EMaxC= 1.00D-01 BMatC= 3.84D-10 BMatP= 9.31D-10
 IDIUse=1 WtCom= 1.00D+00 WtEn= 0.00D+00
 Coeff-Com:  0.358D+00 0.642D+00
 Coeff:      0.358D+00 0.642D+00
 Gap=     0.191 Goal=   None    Shift=    0.000
 RMSDP=6.04D-07 MaxDP=1.03D-05 DE=-1.11D-09 OVMax= 5.64D-06

 Cycle  10  Pass 1  IDiag  1:
 E= -382.308266578431     Delta-E=       -0.000000000341 Rises=F Damp=F
 DIIS: error= 1.44D-06 at cycle   3 NSaved=   3.
 NSaved= 3 IEnMin= 3 EnMin= -382.308266578431     IErMin= 3 ErrMin= 1.44D-06
 ErrMax= 1.44D-06 EMaxC= 1.00D-01 BMatC= 1.12D-10 BMatP= 3.84D-10
 IDIUse=1 WtCom= 1.00D+00 WtEn= 0.00D+00
 Coeff-Com: -0.385D-02 0.347D+00 0.657D+00
 Coeff:     -0.385D-02 0.347D+00 0.657D+00
 Gap=     0.191 Goal=   None    Shift=    0.000
 RMSDP=2.32D-07 MaxDP=4.01D-06 DE=-3.41D-10 OVMax= 3.12D-06

 Cycle  11  Pass 1  IDiag  1:
 E= -382.308266578560     Delta-E=       -0.000000000128 Rises=F Damp=F
 DIIS: error= 3.99D-07 at cycle   4 NSaved=   4.
 NSaved= 4 IEnMin= 4 EnMin= -382.308266578560     IErMin= 4 ErrMin= 3.99D-07
 ErrMax= 3.99D-07 EMaxC= 1.00D-01 BMatC= 6.15D-12 BMatP= 1.12D-10
 IDIUse=1 WtCom= 1.00D+00 WtEn= 0.00D+00
 Coeff-Com: -0.114D-01 0.187D+00 0.378D+00 0.446D+00
 Coeff:     -0.114D-01 0.187D+00 0.378D+00 0.446D+00
 Gap=     0.191 Goal=   None    Shift=    0.000
 RMSDP=6.22D-08 MaxDP=1.46D-06 DE=-1.28D-10 OVMax= 1.33D-06

 Cycle  12  Pass 1  IDiag  1:
 E= -382.308266578567     Delta-E=       -0.000000000008 Rises=F Damp=F
 DIIS: error= 9.57D-08 at cycle   5 NSaved=   5.
 NSaved= 5 IEnMin= 5 EnMin= -382.308266578567     IErMin= 5 ErrMin= 9.57D-08
 ErrMax= 9.57D-08 EMaxC= 1.00D-01 BMatC= 3.80D-13 BMatP= 6.15D-12
 IDIUse=1 WtCom= 1.00D+00 WtEn= 0.00D+00
 Coeff-Com: -0.445D-02 0.460D-01 0.933D-01 0.228D+00 0.637D+00
 Coeff:     -0.445D-02 0.460D-01 0.933D-01 0.228D+00 0.637D+00
 Gap=     0.191 Goal=   None    Shift=    0.000
 RMSDP=1.42D-08 MaxDP=2.90D-07 DE=-7.73D-12 OVMax= 1.41D-07

 Cycle  13  Pass 1  IDiag  1:
 E= -382.308266578568     Delta-E=        0.000000000000 Rises=F Damp=F
 DIIS: error= 1.74D-08 at cycle   6 NSaved=   6.
 NSaved= 6 IEnMin= 6 EnMin= -382.308266578568     IErMin= 6 ErrMin= 1.74D-08
 ErrMax= 1.74D-08 EMaxC= 1.00D-01 BMatC= 2.46D-14 BMatP= 3.80D-13
 IDIUse=1 WtCom= 1.00D+00 WtEn= 0.00D+00
 Coeff-Com: -0.986D-03 0.454D-02 0.684D-02 0.672D-01 0.288D+00 0.635D+00
 Coeff:     -0.986D-03 0.454D-02 0.684D-02 0.672D-01 0.288D+00 0.635D+00
 Gap=     0.191 Goal=   None    Shift=    0.000
 RMSDP=3.54D-09 MaxDP=4.30D-08 DE=-1.14D-13 OVMax= 1.08D-08

 SCF Done:  E(RB3LYP) =  -382.308266579     A.U. after   13 cycles
             Convg  =    0.3543D-08             -V/T =  2.0172
 KE= 3.758473515283D+02 PE=-1.776414994299D+03 EE= 5.723598972981D+02
 Leave Link  502 at Fri Jan 24 09:25:22 2014, MaxMem=   13107200 cpu:      13.2
 (Enter /share/apps/g09/l601.exe)
 Copying SCF densities to generalized density rwf, IOpCl= 0 IROHF=0.

 **********************************************************************

            Population analysis using the SCF density.

 **********************************************************************

 Orbital symmetries:
       Occupied  (BU) (AG) (BU) (AG) (BU) (AG) (BU) (AG) (BU) (AG)
                 (AG) (BU) (AG) (BU) (BU) (AG) (AG) (BU) (AG) (AG)
                 (BU) (BU) (BU) (AG) (BU) (BU) (AG) (AU) (BU) (AG)
                 (AG) (BG) (AU) (BG) (BG)
       Virtual   (AU) (AU) (BG) (AU) (BG) (AG) (BU) (BU) (AG) (AG)
                 (BU) (BU) (AG) (BU) (AG) (AG) (BU) (AG) (BU) (BU)
                 (AG) (AG) (BU) (AG) (BU)
 The electronic state is 1-AG.
 Alpha  occ. eigenvalues --  -10.02021 -10.02016 -10.00812 -10.00811 -10.00679
 Alpha  occ. eigenvalues --  -10.00678 -10.00605 -10.00591  -9.99233  -9.99233
 Alpha  occ. eigenvalues --   -0.80951  -0.75399  -0.71797  -0.69978  -0.66751
 Alpha  occ. eigenvalues --   -0.58869  -0.55892  -0.53167  -0.51017  -0.45744
 Alpha  occ. eigenvalues --   -0.43937  -0.41060  -0.39796  -0.39607  -0.37396
 Alpha  occ. eigenvalues --   -0.35115  -0.34729  -0.32451  -0.31125  -0.29278
 Alpha  occ. eigenvalues --   -0.28746  -0.26355  -0.21245  -0.19505  -0.15309
 Alpha virt. eigenvalues --    0.03742   0.09036   0.11061   0.18220   0.27253
 Alpha virt. eigenvalues --    0.33223   0.34073   0.37936   0.38145   0.41097
 Alpha virt. eigenvalues --    0.41195   0.42676   0.43964   0.45276   0.47826
 Alpha virt. eigenvalues --    0.52624   0.54582   0.57601   0.59944   0.62498
 Alpha virt. eigenvalues --    0.63971   0.68280   0.71725   0.77956   0.79458
          Condensed to atoms (all electrons):
              1          2          3          4          5          6
     1  C    4.778705   0.488325  -0.027150  -0.009776  -0.026980  -0.024562
     2  C    0.488325   4.810689   0.508956  -0.026980  -0.010504   0.387878
     3  C   -0.027150   0.508956   4.815061   0.488800  -0.030713  -0.025273
     4  C   -0.009776  -0.026980   0.488800   4.778705   0.488325   0.001331
     5  C   -0.026980  -0.010504  -0.030713   0.488325   4.810689   0.000032
     6  H   -0.024562   0.387878  -0.025273   0.001331   0.000032   0.586988
     7  H    0.001335  -0.025206   0.387925  -0.025305   0.001342  -0.003825
     8  H    0.001331   0.000032   0.001346  -0.024562   0.387878   0.000002
     9  C    0.000016   0.000818  -0.028765   0.411854  -0.024071  -0.000015
    10  C    0.000000  -0.000007   0.000680  -0.023794  -0.003969   0.000000
    11  H    0.000000   0.000000   0.000013  -0.003533  -0.000563   0.000000
    12  H   -0.000001   0.000022  -0.003962  -0.026070   0.001086  -0.000002
    13  H    0.000000   0.000000  -0.000016   0.001320   0.000018   0.000000
    14  C    0.411854  -0.024071   0.000749   0.000016   0.000818  -0.003040
    15  H   -0.026070   0.001086  -0.000017  -0.000001   0.000022   0.000019
    16  C   -0.023794  -0.003969   0.000015   0.000000  -0.000007  -0.000607
    17  H   -0.003533  -0.000563  -0.000012   0.000000   0.000000   0.000563
    18  H    0.001320   0.000018   0.000000   0.000000   0.000000  -0.000017
    19  C    0.488800  -0.030713  -0.011068  -0.027150   0.508956   0.001346
    20  H   -0.025305   0.001342   0.000039   0.001335  -0.025206  -0.000034
              7          8          9         10         11         12
     1  C    0.001335   0.001331   0.000016   0.000000   0.000000  -0.000001
     2  C   -0.025206   0.000032   0.000818  -0.000007   0.000000   0.000022
     3  C    0.387925   0.001346  -0.028765   0.000680   0.000013  -0.003962
     4  C   -0.025305  -0.024562   0.411854  -0.023794  -0.003533  -0.026070
     5  C    0.001342   0.387878  -0.024071  -0.003969  -0.000563   0.001086
     6  H   -0.003825   0.000002  -0.000015   0.000000   0.000000  -0.000002
     7  H    0.588891  -0.000034  -0.003903   0.000029   0.000001   0.001033
     8  H   -0.000034   0.586988  -0.003040  -0.000607   0.000563   0.000019
     9  C   -0.003903  -0.003040   4.798255   0.586099  -0.023816   0.386256
    10  C    0.000029  -0.000607   0.586099   4.849812   0.385951  -0.027659
    11  H    0.000001   0.000563  -0.023816   0.385951   0.586747   0.002044
    12  H    0.001033   0.000019   0.386256  -0.027659   0.002044   0.595452
    13  H   -0.000002  -0.000017  -0.024045   0.388264  -0.023726  -0.005090
    14  C   -0.000014  -0.000015   0.000000   0.000000   0.000000   0.000000
    15  H    0.000000  -0.000002   0.000000   0.000000   0.000000   0.000000
    16  C    0.000000   0.000000   0.000000   0.000000   0.000000   0.000000
    17  H    0.000002   0.000000   0.000000   0.000000   0.000000   0.000000
    18  H    0.000000   0.000000   0.000000   0.000000   0.000000   0.000000
    19  C    0.000039  -0.025273   0.000749   0.000015  -0.000012  -0.000017
    20  H    0.000002  -0.003825  -0.000014   0.000000   0.000002   0.000000
             13         14         15         16         17         18
     1  C    0.000000   0.411854  -0.026070  -0.023794  -0.003533   0.001320
     2  C    0.000000  -0.024071   0.001086  -0.003969  -0.000563   0.000018
     3  C   -0.000016   0.000749  -0.000017   0.000015  -0.000012   0.000000
     4  C    0.001320   0.000016  -0.000001   0.000000   0.000000   0.000000
     5  C    0.000018   0.000818   0.000022  -0.000007   0.000000   0.000000
     6  H    0.000000  -0.003040   0.000019  -0.000607   0.000563  -0.000017
     7  H   -0.000002  -0.000014   0.000000   0.000000   0.000002   0.000000
     8  H   -0.000017  -0.000015  -0.000002   0.000000   0.000000   0.000000
     9  C   -0.024045   0.000000   0.000000   0.000000   0.000000   0.000000
    10  C    0.388264   0.000000   0.000000   0.000000   0.000000   0.000000
    11  H   -0.023726   0.000000   0.000000   0.000000   0.000000   0.000000
    12  H   -0.005090   0.000000   0.000000   0.000000   0.000000   0.000000
    13  H    0.583948   0.000000   0.000000   0.000000   0.000000   0.000000
    14  C    0.000000   4.798255   0.386256   0.586099  -0.023816  -0.024045
    15  H    0.000000   0.386256   0.595452  -0.027659   0.002044  -0.005090
    16  C    0.000000   0.586099  -0.027659   4.849812   0.385951   0.388264
    17  H    0.000000  -0.023816   0.002044   0.385951   0.586747  -0.023726
    18  H    0.000000  -0.024045  -0.005090   0.388264  -0.023726   0.583948
    19  C    0.000000  -0.028765  -0.003962   0.000680   0.000013  -0.000016
    20  H    0.000000  -0.003903   0.001033   0.000029   0.000001  -0.000002
             19         20
     1  C    0.488800  -0.025305
     2  C   -0.030713   0.001342
     3  C   -0.011068   0.000039
     4  C   -0.027150   0.001335
     5  C    0.508956  -0.025206
     6  H    0.001346  -0.000034
     7  H    0.000039   0.000002
     8  H   -0.025273  -0.003825
     9  C    0.000749  -0.000014
    10  C    0.000015   0.000000
    11  H   -0.000012   0.000002
    12  H   -0.000017   0.000000
    13  H    0.000000   0.000000
    14  C   -0.028765  -0.003903
    15  H   -0.003962   0.001033
    16  C    0.000680   0.000029
    17  H    0.000013   0.000001
    18  H   -0.000016  -0.000002
    19  C    4.815061   0.387925
    20  H    0.387925   0.588891
 Mulliken atomic charges:
              1
     1  C   -0.004514
     2  C   -0.077154
     3  C   -0.076609
     4  C   -0.004514
     5  C   -0.077154
     6  H    0.079217
     7  H    0.077690
     8  H    0.079217
     9  C   -0.076379
    10  C   -0.154814
    11  H    0.076330
    12  H    0.076887
    13  H    0.079346
    14  C   -0.076379
    15  H    0.076887
    16  C   -0.154814
    17  H    0.076330
    18  H    0.079346
    19  C   -0.076609
    20  H    0.077690
 Sum of Mulliken atomic charges =   0.00000
 Mulliken charges with hydrogens summed into heavy atoms:
              1
     1  C   -0.004514
     2  C    0.002064
     3  C    0.001081
     4  C   -0.004514
     5  C    0.002064
     9  C    0.000508
    10  C    0.000861
    14  C    0.000508
    16  C    0.000861
    19  C    0.001081
 Sum of Mulliken charges with hydrogens summed into heavy atoms =   0.00000
 Electronic spatial extent (au):  <R**2>=           1861.7253
 Charge=              0.0000 electrons
 Dipole moment (field-independent basis, Debye):
    X=              0.0000    Y=              0.0000    Z=              0.0000  Tot=              0.0000
 Quadrupole moment (field-independent basis, Debye-Ang):
   XX=            -50.2216   YY=            -50.7166   ZZ=            -58.6254
   XY=             -0.0592   XZ=              0.0000   YZ=              0.0000
 Traceless Quadrupole moment (field-independent basis, Debye-Ang):
   XX=              2.9663   YY=              2.4712   ZZ=             -5.4375
   XY=             -0.0592   XZ=              0.0000   YZ=              0.0000
 Octapole moment (field-independent basis, Debye-Ang**2):
  XXX=              0.0000  YYY=              0.0000  ZZZ=              0.0000  XYY=              0.0000
  XXY=              0.0000  XXZ=              0.0000  XZZ=              0.0000  YZZ=              0.0000
  YYZ=              0.0000  XYZ=              0.0000
 Hexadecapole moment (field-independent basis, Debye-Ang**3):
 XXXX=           -330.0937 YYYY=          -1861.9922 ZZZZ=            -47.6115 XXXY=             13.8196
 XXXZ=              0.0000 YYYX=              8.0840 YYYZ=              0.0000 ZZZX=              0.0000
 ZZZY=              0.0000 XXYY=           -367.7211 XXZZ=            -72.2589 YYZZ=           -367.5321
 XXYZ=              0.0000 YYXZ=              0.0000 ZZXY=              5.8264
 N-N= 4.458994788941D+02 E-N=-1.776414994833D+03  KE= 3.758473515283D+02
 Symmetry AG   KE= 1.814054793543D+02
 Symmetry BG   KE= 7.823289990303D+00
 Symmetry AU   KE= 4.696945301492D+00
 Symmetry BU   KE= 1.819216368822D+02
 No NMR shielding tensors so no spin-rotation constants.
 Leave Link  601 at Fri Jan 24 09:25:24 2014, MaxMem=   13107200 cpu:       1.7
 (Enter /share/apps/g09/l701.exe)
 Compute integral first derivatives.
 ... and contract with generalized density number  0.
 Leave Link  701 at Fri Jan 24 09:25:25 2014, MaxMem=   13107200 cpu:       1.6
 (Enter /share/apps/g09/l702.exe)
 L702 exits ... SP integral derivatives will be done elsewhere.
 Leave Link  702 at Fri Jan 24 09:25:25 2014, MaxMem=   13107200 cpu:       0.2
 (Enter /share/apps/g09/l703.exe)
 Compute integral first derivatives, UseDBF=F ICtDFT=           0.
 Integral derivatives from FoFDir, PRISM(SPDF).
 Calling FoFJK, ICntrl=      2127 FMM=F ISym2X=1 I1Cent= 0 IOpClX= 0 NMat=1 NMatS=1 NMatT=0.
 FoFCou: FMM=F IPFlag=           0 FMFlag=      100000 FMFlg1=         800
         NFxFlg=           0 DoJE=F BraDBF=F KetDBF=F FulRan=T
         Omega=  0.000000  0.000000  1.000000  0.000000  0.000000 ICntrl=    2127 IOpCl=  0
         NMat0=    1 NMatS0=    1 NMatT0=    0 NMatD0=    1 NMtDS0=    0 NMtDT0=    0
         I1Cent=           0 NGrid=           0.
 Petite list used in FoFCou.
 Leave Link  703 at Fri Jan 24 09:25:27 2014, MaxMem=   13107200 cpu:       4.6
 (Enter /share/apps/g09/l716.exe)
 Dipole        =-2.66453526D-15 1.28785871D-14 0.00000000D+00
 ***** Axes restored to original set *****
 -------------------------------------------------------------------
 Center     Atomic                   Forces (Hartrees/Bohr)
 Number     Number              X              Y              Z
 -------------------------------------------------------------------
      1        6           0.000037299   -0.000032086    0.000000000
      2        6          -0.000027340   -0.000032535    0.000000000
      3        6           0.000004605    0.000016309    0.000000000
      4        6          -0.000037299    0.000032086    0.000000000
      5        6           0.000027340    0.000032535    0.000000000
      6        1           0.000009913    0.000004289    0.000000000
      7        1          -0.000004558   -0.000007141    0.000000000
      8        1          -0.000009913   -0.000004289    0.000000000
      9        6           0.000026774   -0.000054424    0.000000000
     10        6           0.000013210    0.000017060    0.000000000
     11        1          -0.000013804    0.000013112    0.000000000
     12        1          -0.000011940    0.000001292    0.000000000
     13        1          -0.000007406   -0.000004107    0.000000000
     14        6          -0.000026774    0.000054424    0.000000000
     15        1           0.000011940   -0.000001292    0.000000000
     16        6          -0.000013210   -0.000017060    0.000000000
     17        1           0.000013804   -0.000013112    0.000000000
     18        1           0.000007406    0.000004107    0.000000000
     19        6          -0.000004605   -0.000016309    0.000000000
     20        1           0.000004558    0.000007141    0.000000000
 -------------------------------------------------------------------
 Cartesian Forces:  Max     0.000054424 RMS     0.000017725
 Leave Link  716 at Fri Jan 24 09:25:27 2014, MaxMem=   13107200 cpu:       0.3
 (Enter /share/apps/g09/l103.exe)

 GradGradGradGradGradGradGradGradGradGradGradGradGradGradGradGradGradGrad
 Berny optimization.
 Internal  Forces:  Max     0.000035599 RMS     0.000010645
 Search for a local minimum.
 Step number   1 out of a maximum of  100 on scan point     1 out of    13
 All quantities printed in internal units (Hartrees-Bohrs-Radians)
 RMS Force = .10705D-04 SwitMx=.10000D-02 MixMth= 2
 Mixed Optimization -- En-DIIS/RFO-DIIS
 Second derivative matrix not updated -- first step.
     Eigenvalues ---    0.00798   0.01253   0.01495   0.01682   0.01800
     Eigenvalues ---    0.01852   0.01866   0.01887   0.01927   0.01934
     Eigenvalues ---    0.01966   0.01975   0.02826   0.02826   0.02826
     Eigenvalues ---    0.02826   0.16000   0.16000   0.16000   0.16000
     Eigenvalues ---    0.16000   0.16000   0.16000   0.16000   0.16000
     Eigenvalues ---    0.16000   0.22000   0.22000   0.22000   0.22948
     Eigenvalues ---    0.24000   0.25000   0.25000   0.32630   0.32630
     Eigenvalues ---    0.33638   0.33638   0.33830   0.33830   0.33946
     Eigenvalues ---    0.33946   0.34102   0.34102   0.34129   0.34129
     Eigenvalues ---    0.39143   0.39744   0.42094   0.42287   0.43758
     Eigenvalues ---    0.45262   0.56260   0.562601000.000001000.00000
     Eigenvalues --- 1000.000001000.000001000.000001000.000001000.00000
     Eigenvalues --- 1000.000001000.000001000.000001000.000001000.00000
     Eigenvalues --- 1000.000001000.000001000.000001000.000001000.00000
     Eigenvalues --- 1000.000001000.000001000.000001000.000001000.00000
     Eigenvalues --- 1000.000001000.000001000.000001000.000001000.00000
     Eigenvalues --- 1000.000001000.000001000.000001000.000001000.00000
     Eigenvalues --- 1000.000001000.000001000.000001000.000001000.00000
 RFO step:  Lambda=-3.80834205D-08 EMin= 7.97602396D-03
 Linear search not attempted -- first point.
 Iteration  1 RMS(Cart)=  0.00013260 RMS(Int)=  0.00000001
 Iteration  2 RMS(Cart)=  0.00000001 RMS(Int)=  0.00000000
 Iteration  1 RMS(Cart)=  0.00000000 RMS(Int)=  0.00000000
 ClnCor:  largest displacement from symmetrization is 1.21D-08 for atom    13.
 Variable       Old X    -DE/DX   Delta X   Delta X   Delta X     New X
                                 (Linear)    (Quad)   (Total)
    R1        2.68559   0.00001   0.00000   0.00003   0.00003   2.68561
    R2        2.83007  -0.00003   0.00000  -0.00010  -0.00010   2.82997
    R3        2.68803   0.00001   0.00000   0.00002   0.00002   2.68806
    R4        2.64973   0.00002   0.00000   0.00005   0.00005   2.64977
    R5        2.07422  -0.00001   0.00000  -0.00003  -0.00003   2.07419
    R6        2.68803   0.00001   0.00000   0.00002   0.00002   2.68806
    R7        2.07617   0.00000   0.00000   0.00001   0.00001   2.07618
    R8        2.68559   0.00001   0.00000   0.00003   0.00003   2.68561
    R9        2.83007  -0.00003   0.00000  -0.00010  -0.00010   2.82997
   R10        2.07422  -0.00001   0.00000  -0.00003  -0.00003   2.07419
   R11        2.64973   0.00002   0.00000   0.00005   0.00005   2.64977
   R12        2.54029   0.00002   0.00000   0.00004   0.00004   2.54033
   R13        2.07946   0.00001   0.00000   0.00003   0.00003   2.07949
   R14        2.07113  -0.00001   0.00000  -0.00003  -0.00003   2.07110
   R15        2.07158   0.00000   0.00000  -0.00001  -0.00001   2.07157
   R16        2.07946   0.00001   0.00000   0.00003   0.00003   2.07949
   R17        2.54029   0.00002   0.00000   0.00004   0.00004   2.54033
   R18        2.07113  -0.00001   0.00000  -0.00003  -0.00003   2.07110
   R19        2.07158   0.00000   0.00000  -0.00001  -0.00001   2.07157
   R20        2.07617   0.00000   0.00000   0.00001   0.00001   2.07618
    A1        2.14744  -0.00001   0.00000  -0.00002  -0.00002   2.14742
    A2        2.05581   0.00000   0.00000   0.00001   0.00001   2.05581
    A3        2.07994   0.00000   0.00000   0.00001   0.00001   2.07995
    A4        2.10935  -0.00001   0.00000  -0.00004  -0.00004   2.10932
    A5        2.09029   0.00000   0.00000   0.00002   0.00002   2.09030
    A6        2.08355   0.00000   0.00000   0.00002   0.00002   2.08357
    A7        2.11803   0.00001   0.00000   0.00003   0.00003   2.11806
    A8        2.08792  -0.00001   0.00000  -0.00005  -0.00005   2.08786
    A9        2.07724   0.00000   0.00000   0.00002   0.00002   2.07726
   A10        2.05581   0.00000   0.00000   0.00001   0.00001   2.05581
   A11        2.07994   0.00000   0.00000   0.00001   0.00001   2.07995
   A12        2.14744  -0.00001   0.00000  -0.00002  -0.00002   2.14742
   A13        2.09029   0.00000   0.00000   0.00002   0.00002   2.09030
   A14        2.10935  -0.00001   0.00000  -0.00004  -0.00004   2.10932
   A15        2.08355   0.00000   0.00000   0.00002   0.00002   2.08357
   A16        2.20947   0.00004   0.00000   0.00016   0.00016   2.20963
   A17        1.99724  -0.00002   0.00000  -0.00007  -0.00007   1.99717
   A18        2.07647  -0.00002   0.00000  -0.00009  -0.00009   2.07638
   A19        2.14059   0.00002   0.00000   0.00010   0.00010   2.14069
   A20        2.11583  -0.00001   0.00000  -0.00007  -0.00007   2.11576
   A21        2.02676   0.00000   0.00000  -0.00003  -0.00003   2.02673
   A22        1.99724  -0.00002   0.00000  -0.00007  -0.00007   1.99717
   A23        2.20947   0.00004   0.00000   0.00016   0.00016   2.20963
   A24        2.07647  -0.00002   0.00000  -0.00009  -0.00009   2.07638
   A25        2.14059   0.00002   0.00000   0.00010   0.00010   2.14069
   A26        2.11583  -0.00001   0.00000  -0.00007  -0.00007   2.11576
   A27        2.02676   0.00000   0.00000  -0.00003  -0.00003   2.02673
   A28        2.11803   0.00001   0.00000   0.00003   0.00003   2.11806
   A29        2.07724   0.00000   0.00000   0.00002   0.00002   2.07726
   A30        2.08792  -0.00001   0.00000  -0.00005  -0.00005   2.08786
    D1        3.14159   0.00000   0.00000   0.00000   0.00000   3.14159
    D2        0.00000   0.00000   0.00000   0.00000   0.00000   0.00000
    D3        0.00000   0.00000   0.00000   0.00000   0.00000   0.00000
    D4        3.14159   0.00000   0.00000   0.00000   0.00000   3.14159
    D5        3.14159   0.00000   0.00000   0.00000   0.00000   3.14159
    D6        0.00000   0.00000   0.00000   0.00000   0.00000   0.00000
    D7        0.00000   0.00000   0.00000   0.00000   0.00000   0.00000
    D8        3.14159   0.00000   0.00000   0.00000   0.00000   3.14159
    D9        0.00000   0.00000   0.00000   0.00000   0.00000   0.00000
   D10        3.14159   0.00000   0.00000   0.00000   0.00000   3.14159
   D11        3.14159   0.00000   0.00000   0.00000   0.00000   3.14159
   D12        0.00000   0.00000   0.00000   0.00000   0.00000   0.00000
   D13        0.00000   0.00000   0.00000   0.00000   0.00000   0.00000
   D14        3.14159   0.00000   0.00000   0.00000   0.00000   3.14159
   D15        3.14159   0.00000   0.00000   0.00000   0.00000   3.14159
   D16        0.00000   0.00000   0.00000   0.00000   0.00000   0.00000
   D17        0.00000   0.00000   0.00000   0.00000   0.00000   0.00000
   D18        3.14159   0.00000   0.00000   0.00000   0.00000   3.14159
   D19        3.14159   0.00000   0.00000   0.00000   0.00000   3.14159
   D20        0.00000   0.00000   0.00000   0.00000   0.00000   0.00000
   D21        3.14159   0.00000   0.00000   0.00000   0.00000   3.14159
   D22        0.00000   0.00000   0.00000   0.00000   0.00000   0.00000
   D23        0.00000   0.00000   0.00000   0.00000   0.00000   0.00000
   D24        3.14159   0.00000   0.00000   0.00000   0.00000   3.14159
   D25        3.14159   0.00000   0.00000   0.00000   0.00000   3.14159
   D26        0.00000   0.00000   0.00000   0.00000   0.00000   0.00000
   D27        0.00000   0.00000   0.00000   0.00000   0.00000   0.00000
   D28        3.14159   0.00000   0.00000   0.00000   0.00000   3.14159
   D29        0.00000   0.00000   0.00000   0.00000   0.00000   0.00000
   D30        3.14159   0.00000   0.00000   0.00000   0.00000   3.14159
   D31        3.14159   0.00000   0.00000   0.00000   0.00000   3.14159
   D32        0.00000   0.00000   0.00000   0.00000   0.00000   0.00000
   D33        0.00000   0.00000   0.00000   0.00000   0.00000   0.00000
   D34        3.14159   0.00000   0.00000   0.00000   0.00000   3.14159
   D35        3.14159   0.00000   0.00000   0.00000   0.00000   3.14159
   D36        0.00000   0.00000   0.00000   0.00000   0.00000   0.00000
   D37        0.00000   0.00000   0.00000   0.00000   0.00000   0.00000
   D38        3.14159   0.00000   0.00000   0.00000   0.00000   3.14159
   D39        3.14159   0.00000   0.00000   0.00000   0.00000   3.14159
   D40        0.00000   0.00000   0.00000   0.00000   0.00000   0.00000
         Item               Value     Threshold  Converged?
 Maximum Force            0.000036     0.000450     YES
 RMS     Force            0.000011     0.000300     YES
 Maximum Displacement     0.000667     0.001800     YES
 RMS     Displacement     0.000133     0.001200     YES
 Predicted change in Energy=-1.904171D-08
 Optimization completed.
    -- Stationary point found.
                           ----------------------------
                           !   Optimized Parameters   !
                           ! (Angstroms and Degrees)  !
 --------------------------                            --------------------------
 ! Name  Definition              Value          Derivative Info.                !
 --------------------------------------------------------------------------------
 ! R1    R(1,2)                  1.4212         -DE/DX =    0.0                 !
 ! R2    R(1,14)                 1.4976         -DE/DX =    0.0                 !
 ! R3    R(1,19)                 1.4224         -DE/DX =    0.0                 !
 ! R4    R(2,3)                  1.4022         -DE/DX =    0.0                 !
 ! R5    R(2,6)                  1.0976         -DE/DX =    0.0                 !
 ! R6    R(3,4)                  1.4224         -DE/DX =    0.0                 !
 ! R7    R(3,7)                  1.0987         -DE/DX =    0.0                 !
 ! R8    R(4,5)                  1.4212         -DE/DX =    0.0                 !
 ! R9    R(4,9)                  1.4976         -DE/DX =    0.0                 !
 ! R10   R(5,8)                  1.0976         -DE/DX =    0.0                 !
 ! R11   R(5,19)                 1.4022         -DE/DX =    0.0                 !
 ! R12   R(9,10)                 1.3443         -DE/DX =    0.0                 !
 ! R13   R(9,12)                 1.1004         -DE/DX =    0.0                 !
 ! R14   R(10,11)                1.096          -DE/DX =    0.0                 !
 ! R15   R(10,13)                1.0962         -DE/DX =    0.0                 !
 ! R16   R(14,15)                1.1004         -DE/DX =    0.0                 !
 ! R17   R(14,16)                1.3443         -DE/DX =    0.0                 !
 ! R18   R(16,17)                1.096          -DE/DX =    0.0                 !
 ! R19   R(16,18)                1.0962         -DE/DX =    0.0                 !
 ! R20   R(19,20)                1.0987         -DE/DX =    0.0                 !
 ! A1    A(2,1,14)             123.0393         -DE/DX =    0.0                 !
 ! A2    A(2,1,19)             117.789          -DE/DX =    0.0                 !
 ! A3    A(14,1,19)            119.1718         -DE/DX =    0.0                 !
 ! A4    A(1,2,3)              120.8571         -DE/DX =    0.0                 !
 ! A5    A(1,2,6)              119.7645         -DE/DX =    0.0                 !
 ! A6    A(3,2,6)              119.3784         -DE/DX =    0.0                 !
 ! A7    A(2,3,4)              121.3539         -DE/DX =    0.0                 !
 ! A8    A(2,3,7)              119.6288         -DE/DX =    0.0                 !
 ! A9    A(4,3,7)              119.0173         -DE/DX =    0.0                 !
 ! A10   A(3,4,5)              117.789          -DE/DX =    0.0                 !
 ! A11   A(3,4,9)              119.1718         -DE/DX =    0.0                 !
 ! A12   A(5,4,9)              123.0393         -DE/DX =    0.0                 !
 ! A13   A(4,5,8)              119.7645         -DE/DX =    0.0                 !
 ! A14   A(4,5,19)             120.8571         -DE/DX =    0.0                 !
 ! A15   A(8,5,19)             119.3784         -DE/DX =    0.0                 !
 ! A16   A(4,9,10)             126.5934         -DE/DX =    0.0                 !
 ! A17   A(4,9,12)             114.4334         -DE/DX =    0.0                 !
 ! A18   A(10,9,12)            118.9732         -DE/DX =    0.0                 !
 ! A19   A(9,10,11)            122.647          -DE/DX =    0.0                 !
 ! A20   A(9,10,13)            121.2283         -DE/DX =    0.0                 !
 ! A21   A(11,10,13)           116.1247         -DE/DX =    0.0                 !
 ! A22   A(1,14,15)            114.4334         -DE/DX =    0.0                 !
 ! A23   A(1,14,16)            126.5934         -DE/DX =    0.0                 !
 ! A24   A(15,14,16)           118.9732         -DE/DX =    0.0                 !
 ! A25   A(14,16,17)           122.647          -DE/DX =    0.0                 !
 ! A26   A(14,16,18)           121.2283         -DE/DX =    0.0                 !
 ! A27   A(17,16,18)           116.1247         -DE/DX =    0.0                 !
 ! A28   A(1,19,5)             121.3539         -DE/DX =    0.0                 !
 ! A29   A(1,19,20)            119.0173         -DE/DX =    0.0                 !
 ! A30   A(5,19,20)            119.6288         -DE/DX =    0.0                 !
 ! D1    D(14,1,2,3)           180.0            -DE/DX =    0.0                 !
 ! D2    D(14,1,2,6)             0.0            -DE/DX =    0.0                 !
 ! D3    D(19,1,2,3)             0.0            -DE/DX =    0.0                 !
 ! D4    D(19,1,2,6)           180.0            -DE/DX =    0.0                 !
 ! D5    D(2,1,14,15)          180.0            -DE/DX =    0.0                 !
 ! D6    D(2,1,14,16)            0.0            -DE/DX =    0.0                 !
 ! D7    D(19,1,14,15)           0.0            -DE/DX =    0.0                 !
 ! D8    D(19,1,14,16)         180.0            -DE/DX =    0.0                 !
 ! D9    D(2,1,19,5)             0.0            -DE/DX =    0.0                 !
 ! D10   D(2,1,19,20)          180.0            -DE/DX =    0.0                 !
 ! D11   D(14,1,19,5)          180.0            -DE/DX =    0.0                 !
 ! D12   D(14,1,19,20)           0.0            -DE/DX =    0.0                 !
 ! D13   D(1,2,3,4)              0.0            -DE/DX =    0.0                 !
 ! D14   D(1,2,3,7)            180.0            -DE/DX =    0.0                 !
 ! D15   D(6,2,3,4)            180.0            -DE/DX =    0.0                 !
 ! D16   D(6,2,3,7)              0.0            -DE/DX =    0.0                 !
 ! D17   D(2,3,4,5)              0.0            -DE/DX =    0.0                 !
 ! D18   D(2,3,4,9)            180.0            -DE/DX =    0.0                 !
 ! D19   D(7,3,4,5)            180.0            -DE/DX =    0.0                 !
 ! D20   D(7,3,4,9)              0.0            -DE/DX =    0.0                 !
 ! D21   D(3,4,5,8)            180.0            -DE/DX =    0.0                 !
 ! D22   D(3,4,5,19)             0.0            -DE/DX =    0.0                 !
 ! D23   D(9,4,5,8)              0.0            -DE/DX =    0.0                 !
 ! D24   D(9,4,5,19)           180.0            -DE/DX =    0.0                 !
 ! D25   D(3,4,9,10)           180.0            -DE/DX =    0.0                 !
 ! D26   D(3,4,9,12)             0.0            -DE/DX =    0.0                 !
 ! D27   D(5,4,9,10)             0.0            -DE/DX =    0.0                 !
 ! D28   D(5,4,9,12)           180.0            -DE/DX =    0.0                 !
 ! D29   D(4,5,19,1)             0.0            -DE/DX =    0.0                 !
 ! D30   D(4,5,19,20)          180.0            -DE/DX =    0.0                 !
 ! D31   D(8,5,19,1)           180.0            -DE/DX =    0.0                 !
 ! D32   D(8,5,19,20)            0.0            -DE/DX =    0.0                 !
 ! D33   D(4,9,10,11)            0.0            -DE/DX =    0.0                 !
 ! D34   D(4,9,10,13)          180.0            -DE/DX =    0.0                 !
 ! D35   D(12,9,10,11)         180.0            -DE/DX =    0.0                 !
 ! D36   D(12,9,10,13)           0.0            -DE/DX =    0.0                 !
 ! D37   D(1,14,16,17)           0.0            -DE/DX =    0.0                 !
 ! D38   D(1,14,16,18)         180.0            -DE/DX =    0.0                 !
 ! D39   D(15,14,16,17)        180.0            -DE/DX =    0.0                 !
 ! D40   D(15,14,16,18)          0.0            -DE/DX =    0.0                 !
 --------------------------------------------------------------------------------
 Iteration  1 RMS(Cart)=  0.03181689 RMS(Int)=  0.04690689
 Iteration  2 RMS(Cart)=  0.01439254 RMS(Int)=  0.04413961
 Iteration  3 RMS(Cart)=  0.00647557 RMS(Int)=  0.04314376
 Iteration  4 RMS(Cart)=  0.00292989 RMS(Int)=  0.04274893
 Iteration  5 RMS(Cart)=  0.00132802 RMS(Int)=  0.04258183
 Iteration  6 RMS(Cart)=  0.00060230 RMS(Int)=  0.04250853
 Iteration  7 RMS(Cart)=  0.00027322 RMS(Int)=  0.04247580
 Iteration  8 RMS(Cart)=  0.00012395 RMS(Int)=  0.04246105
 Iteration  9 RMS(Cart)=  0.00005623 RMS(Int)=  0.04245438
 Iteration 10 RMS(Cart)=  0.00002551 RMS(Int)=  0.04245136
 Iteration 11 RMS(Cart)=  0.00001157 RMS(Int)=  0.04244999
 Iteration 12 RMS(Cart)=  0.00000525 RMS(Int)=  0.04244937
 Iteration 13 RMS(Cart)=  0.00000238 RMS(Int)=  0.04244909
 Iteration 14 RMS(Cart)=  0.00000108 RMS(Int)=  0.04244896
 Iteration 15 RMS(Cart)=  0.00000049 RMS(Int)=  0.04244890
 Iteration  1 RMS(Cart)=  0.03188244 RMS(Int)=  0.03029253
 Iteration  2 RMS(Cart)=  0.03199394 RMS(Int)=  0.02823348
 Iteration  3 RMS(Cart)=  0.02884904 RMS(Int)=  0.03207503
 Iteration  4 RMS(Cart)=  0.01590110 RMS(Int)=  0.03595584
 Iteration  5 RMS(Cart)=  0.00872290 RMS(Int)=  0.03845128
 Iteration  6 RMS(Cart)=  0.00477169 RMS(Int)=  0.03990329
 Iteration  7 RMS(Cart)=  0.00260608 RMS(Int)=  0.04071909
 Iteration  8 RMS(Cart)=  0.00142205 RMS(Int)=  0.04117057
 Iteration  9 RMS(Cart)=  0.00077558 RMS(Int)=  0.04141861
 Iteration 10 RMS(Cart)=  0.00042289 RMS(Int)=  0.04155438
 Iteration 11 RMS(Cart)=  0.00023054 RMS(Int)=  0.04162856
 Iteration 12 RMS(Cart)=  0.00012568 RMS(Int)=  0.04166904
 Iteration 13 RMS(Cart)=  0.00006851 RMS(Int)=  0.04169112
 Iteration 14 RMS(Cart)=  0.00003734 RMS(Int)=  0.04170316
 Iteration 15 RMS(Cart)=  0.00002035 RMS(Int)=  0.04170972
 Iteration 16 RMS(Cart)=  0.00001109 RMS(Int)=  0.04171330
 Iteration 17 RMS(Cart)=  0.00000605 RMS(Int)=  0.04171525
 Iteration 18 RMS(Cart)=  0.00000330 RMS(Int)=  0.04171631
 Iteration 19 RMS(Cart)=  0.00000180 RMS(Int)=  0.04171689
 Iteration 20 RMS(Cart)=  0.00000098 RMS(Int)=  0.04171721
 GradGradGradGradGradGradGradGradGradGradGradGradGradGradGradGradGradGrad

 Leave Link  103 at Fri Jan 24 09:25:28 2014, MaxMem=   13107200 cpu:       1.0
 (Enter /share/apps/g09/l202.exe)
                          Input orientation:                          
 ---------------------------------------------------------------------
 Center     Atomic      Atomic             Coordinates (Angstroms)
 Number     Number       Type             X           Y           Z
 ---------------------------------------------------------------------
      1          6           0        0.274083   -1.406440    0.046764
      2          6           0       -1.055082   -0.908407    0.015068
      3          6           0       -1.309511    0.468649    0.090784
      4          6           0       -0.257715    1.417313    0.243930
      5          6           0        1.073534    0.916523    0.213209
      6          1           0       -1.896558   -1.607304   -0.080167
      7          1           0       -2.346158    0.829679    0.042709
      8          1           0        1.917168    1.617347    0.258812
      9          6           0       -0.581915    2.878715    0.198338
     10          6           0        0.239406    3.860231   -0.234382
     11          1           0        1.296121    3.687791   -0.480648
     12          1           0       -1.652154    3.120934    0.285563
     13          1           0       -0.119876    4.888948   -0.360500
     14          6           0        0.603028   -2.865476   -0.032433
     15          1           0        1.679683   -3.091272   -0.003609
     16          6           0       -0.272931   -3.880784   -0.131793
     17          1           0       -1.357336   -3.725169   -0.165370
     18          1           0        0.066967   -4.921795   -0.184086
     19          6           0        1.330499   -0.460081    0.138590
     20          1           0        2.368748   -0.819402    0.139220
 ---------------------------------------------------------------------
                    Distance matrix (angstroms):
                    1          2          3          4          5
     1  C    0.000000
     2  C    1.419761   0.000000
     3  C    2.454723   1.402409   0.000000
     4  C    2.880150   2.469239   1.424672   0.000000
     5  C    2.462312   2.810806   2.427855   1.422658   0.000000
     6  H    2.183607   1.098002   2.164123   3.455308   3.908608
     7  H    3.444693   2.165314   1.098768   2.178853   3.425041
     8  H    3.447895   3.908083   3.429169   2.184113   1.097703
     9  C    4.372443   3.820964   2.519797   1.497625   2.567281
    10  C    5.274284   4.947507   3.742686   2.538457   3.092172
    11  H    5.222443   5.186417   4.180756   2.845082   2.865469
    12  H    4.925904   4.082310   2.681410   2.201936   3.506286
    13  H    6.320836   5.884299   4.599774   3.526554   4.187305
    14  C    1.497752   2.565483   3.845696   4.377160   3.819061
    15  H    2.194745   3.499169   4.649433   4.913463   4.059168
    16  C    2.540371   3.077069   4.476786   5.311424   4.994612
    17  H    2.843068   2.838673   4.201906   5.274639   5.253357
    18  H    3.529010   4.172043   5.570200   6.361831   5.937758
    19  C    1.421282   2.430483   2.799014   2.461327   1.402369
    20  H    2.177334   3.427236   3.897565   3.451400   2.167138
                    6          7          8          9         10
     6  H    0.000000
     7  H    2.481153   0.000000
     8  H    5.005775   4.340861   0.000000
     9  C    4.682970   2.708380   2.800022   0.000000
    10  C    5.871972   3.993266   2.844056   1.350996   0.000000
    11  H    6.196097   4.659282   2.284565   2.154680   1.098648
    12  H    4.748655   2.406340   3.873183   1.100767   2.096402
    13  H    6.740658   4.647212   3.903391   2.137011   1.096926
    14  C    2.798787   4.728373   4.680543   5.869674   6.738556
    15  H    3.872663   5.619911   4.721902   6.387202   7.102890
    16  C    2.794198   5.149484   5.931151   6.774606   7.758629
    17  H    2.187093   4.665587   6.280509   6.659192   7.751944
    18  H    3.853840   6.241318   6.810270   7.836788   8.783863
    19  C    3.431890   3.897497   2.162023   3.848176   4.471542
    20  H    4.343012   4.995911   2.481123   4.731382   5.154866
                   11         12         13         14         15
    11  H    0.000000
    12  H    3.098504   0.000000
    13  H    1.860714   2.427168   0.000000
    14  C    6.605042   6.405004   7.794953   0.000000
    15  H    6.806642   7.055229   8.188387   1.100454   0.000000
    16  C    7.737374   7.148462   8.774049   1.344630   2.110086
    17  H    7.879861   6.867270   8.704734   2.144709   3.106683
    18  H    8.701939   8.237805   9.814107   2.130448   2.446270
    19  C    4.193982   4.662778   5.564601   2.518806   2.658065
    20  H    4.674351   5.631635   6.247257   2.708071   2.378362
                   16         17         18         19         20
    16  C    0.000000
    17  H    1.096028   0.000000
    18  H    1.096343   1.860350   0.000000
    19  C    3.787519   4.240006   4.648389   0.000000
    20  H    4.052651   4.734972   4.715119   1.098668   0.000000
 Stoichiometry    C10H10
 Framework group  C1[X(C10H10)]
 Deg. of freedom    54
 Full point group                 C1      NOp   1
 Omega: Change in point group or standard orientation.

 Old FWG=C02H [SGH(C10H10)]
 New FWG=C01  [X(C10H10)]
 Largest Abelian subgroup         C1      NOp   1
 Largest concise Abelian subgroup C1      NOp   1
                         Standard orientation:                         
 ---------------------------------------------------------------------
 Center     Atomic      Atomic             Coordinates (Angstroms)
 Number     Number       Type             X           Y           Z
 ---------------------------------------------------------------------
      1          6           0       -1.413528    0.239271   -0.017925
      2          6           0       -0.885895   -1.078561    0.007423
      3          6           0        0.497163   -1.301286   -0.058117
      4          6           0        1.423124   -0.227163   -0.194304
      5          6           0        0.892146    1.092173   -0.157248
      6          1           0       -1.566410   -1.936321    0.089626
      7          1           0        0.881082   -2.329905   -0.015238
      8          1           0        1.574107    1.951721   -0.189786
      9          6           0        2.891024   -0.518746   -0.138361
     10          6           0        3.849938    0.320845    0.309701
     11          1           0        3.651540    1.371329    0.562978
     12          1           0        3.158104   -1.582499   -0.232099
     13          1           0        4.885372   -0.016220    0.442036
     14          6           0       -2.880254    0.534616    0.050971
     15          1           0       -3.130051    1.606116    0.028867
     16          6           0       -3.876345   -0.364775    0.134209
     17          1           0       -3.696575   -1.445643    0.160380
     18          1           0       -4.925183   -0.048846    0.180005
     19          6           0       -0.490508    1.317452   -0.092779
     20          1           0       -0.873168    2.347317   -0.088189
 ---------------------------------------------------------------------
 Rotational constants (GHZ):      4.5456902      0.6861959      0.6007300
 Leave Link  202 at Fri Jan 24 09:25:28 2014, MaxMem=   13107200 cpu:       0.0
 (Enter /share/apps/g09/l301.exe)
 Standard basis: STO-3G (5D, 7F)
 Ernie: Thresh=  0.10000D-02 Tol=  0.10000D-05 Strict=F.
 There are    60 symmetry adapted basis functions of A   symmetry.
 Integral buffers will be    262144 words long.
 Raffenetti 2 integral format.
 Two-electron integral symmetry is turned on.
    60 basis functions,   180 primitive gaussians,    60 cartesian basis functions
    35 alpha electrons       35 beta electrons
       nuclear repulsion energy       445.8723116302 Hartrees.
 IExCor=  402 DFT=T Ex+Corr=B3LYP ExCW=0 ScaHFX=  0.200000
 ScaDFX=  0.800000  0.720000  1.000000  0.810000 ScalE2=  1.000000  1.000000
 IRadAn=      0 IRanWt=     -1 IRanGd=            0 ICorTp=0
 NAtoms=   20 NActive=   20 NUniq=   20 SFac= 7.50D-01 NAtFMM=   80 NAOKFM=F Big=F
 Leave Link  301 at Fri Jan 24 09:25:28 2014, MaxMem=   13107200 cpu:       0.4
 (Enter /share/apps/g09/l302.exe)
 NPDir=0 NMtPBC=     1 NCelOv=     1 NCel=       1 NClECP=     1 NCelD=      1
         NCelK=      1 NCelE2=     1 NClLst=     1 CellRange=     0.0.
 One-electron integrals computed using PRISM.
 NBasis=    60 RedAO= T  NBF=    60
 NBsUse=    60 1.00D-06 NBFU=    60
 Precomputing XC quadrature grid using
 IXCGrd= 2 IRadAn=           0 IRanWt=          -1 IRanGd=           0 AccXCQ= 1.00D-10.
 NRdTot=    1260 NPtTot=      160388 NUsed=      166270 NTot=      166286
 NSgBfM=    59    59    59    59    59 NAtAll=    20    20.
 Leave Link  302 at Fri Jan 24 09:25:28 2014, MaxMem=   13107200 cpu:       1.8
 (Enter /share/apps/g09/l303.exe)
 DipDrv:  MaxL=1.
 Leave Link  303 at Fri Jan 24 09:25:29 2014, MaxMem=   13107200 cpu:       0.3
 (Enter /share/apps/g09/l401.exe)
 Initial guess read from the read-write file.
 B after Tr=     0.000000    0.000000    0.000000
         Rot=    1.000000    0.000000    0.000000    0.000000 Ang=   0.00 deg.
 Guess basis will be translated and rotated to current coordinates.
 Initial guess orbital symmetries:
       Occupied  (A) (A) (A) (A) (A) (A) (A) (A) (A) (A) (A) (A)
                 (A) (A) (A) (A) (A) (A) (A) (A) (A) (A) (A) (A)
                 (A) (A) (A) (A) (A) (A) (A) (A) (A) (A) (A)
       Virtual   (A) (A) (A) (A) (A) (A) (A) (A) (A) (A) (A) (A)
                 (A) (A) (A) (A) (A) (A) (A) (A) (A) (A) (A) (A)
                 (A)
 The electronic state of the initial guess is 1-A.
 Generating alternative initial guess.
 Harris functional with IExCor=  402 diagonalized for initial guess.
 ExpMin= 1.69D-01 ExpMax= 7.16D+01 ExpMxC= 7.16D+01 IAcc=1 IRadAn=         1 AccDes= 0.00D+00
 HarFok:  IExCor=  402 AccDes= 0.00D+00 IRadAn=         1 IDoV= 1
 ScaDFX=  1.000000  1.000000  1.000000  1.000000
 FoFCou: FMM=F IPFlag=           0 FMFlag=      100000 FMFlg1=           0
         NFxFlg=           0 DoJE=T BraDBF=F KetDBF=T FulRan=T
         Omega=  0.000000  0.000000  1.000000  0.000000  0.000000 ICntrl=     500 IOpCl=  0
         NMat0=    1 NMatS0=    1 NMatT0=    0 NMatD0=    1 NMtDS0=    0 NMtDT0=    0
         I1Cent=           4 NGrid=           0.
 Petite list used in FoFCou.
 Harris En= -382.234365617694    
 Leave Link  401 at Fri Jan 24 09:25:30 2014, MaxMem=   13107200 cpu:       4.2
 (Enter /share/apps/g09/l502.exe)
 Closed shell SCF:
 Requested convergence on RMS density matrix=1.00D-08 within 128 cycles.
 Requested convergence on MAX density matrix=1.00D-06.
 Requested convergence on             energy=1.00D-06.
 No special actions if energy rises.
 Using DIIS extrapolation, IDIIS=  1040.
 Integral symmetry usage will be decided dynamically.
       166098 words used for storage of precomputed grid.
 Keep R1 ints in memory in canonical form, NReq=2748537.
 IEnd=      195789 IEndB=      195789 NGot=    13107200 MDV=    11256319
 LenX=    11256319 LenY=    11252278
 Symmetry not used in FoFDir.
 MinBra= 0 MaxBra= 1 Meth= 1.
 IRaf=       0 NMat=   1 IRICut=       1 DoRegI=T DoRafI=F ISym2E= 0 JSym2E=0.
 Integral accuracy reduced to 1.0D-05 until final iterations.

 Cycle   1  Pass 0  IDiag  1:
 E= -372.468368775263    
 DIIS: error= 1.12D-01 at cycle   1 NSaved=   1.
 NSaved= 1 IEnMin= 1 EnMin= -372.468368775263     IErMin= 1 ErrMin= 1.12D-01
 ErrMax= 1.12D-01 EMaxC= 1.00D-01 BMatC= 1.20D+00 BMatP= 1.20D+00
 IDIUse=3 WtCom= 0.00D+00 WtEn= 1.00D+00
 Coeff-Com:  0.100D+01
 Coeff-En:   0.100D+01
 Coeff:      0.100D+01
 Recover alternate guess density for next cycle.
 RMSDP=1.22D-01 MaxDP=8.52D-01              OVMax= 0.00D+00

 Cycle   2  Pass 0  IDiag  1:
 E= -382.245317686859     Delta-E=       -9.776948911596 Rises=F Damp=F
 DIIS: error= 1.81D-02 at cycle   2 NSaved=   2.
 NSaved= 2 IEnMin= 2 EnMin= -382.245317686859     IErMin= 2 ErrMin= 1.81D-02
 ErrMax= 1.81D-02 EMaxC= 1.00D-01 BMatC= 4.23D-02 BMatP= 1.20D+00
 IDIUse=3 WtCom= 8.19D-01 WtEn= 1.81D-01
 Coeff-Com:  0.373D-01 0.963D+00
 Coeff-En:   0.000D+00 0.100D+01
 Coeff:      0.305D-01 0.969D+00
 Gap=     0.192 Goal=   None    Shift=    0.000
 RMSDP=8.26D-03 MaxDP=1.00D-01 DE=-9.78D+00 OVMax= 0.00D+00

 Cycle   3  Pass 0  IDiag  1:
 E= -382.278306934814     Delta-E=       -0.032989247955 Rises=F Damp=F
 DIIS: error= 1.16D-02 at cycle   3 NSaved=   3.
[...]
           D22          1.40278   0.33571   0.00396
           D23         -3.45806  -2.73937   0.00560
           D24        177.08971 178.01700-179.99065
           D25        120.00001 150.00013 179.99990
           D26        -53.86674 -25.42137   0.00201
           D27        -55.60359 -27.64374  -0.00556
           D28        130.52966 156.93476 179.99655
           D29         -0.87097  -0.39136  -0.00181
           D30        179.32225 179.50309 180.00171
           D31        179.67965-179.63392-179.99808
           D32         -0.12712   0.26053   0.00544
           D33          3.79438   2.36777  -0.00029
           D34       -177.14588-177.97159 179.99383
           D35        177.45112 177.61287 179.99751
           D36         -3.48914  -2.72649  -0.00837
           D37          0.00775   0.02669   0.00226
           D38       -179.98853-179.95939-180.00240
           D39       -179.96808-180.00052 180.00421
           D40          0.03564   0.01340  -0.00046
 Largest change from initial coordinates is atom   13       4.516 Angstoms.
 Leave Link  103 at Fri Jan 24 09:38:31 2014, MaxMem=   13107200 cpu:       0.2
 (Enter /share/apps/g09/l202.exe)
                          Input orientation:                          
 ---------------------------------------------------------------------
 Center     Atomic      Atomic             Coordinates (Angstroms)
 Number     Number       Type             X           Y           Z
 ---------------------------------------------------------------------
      1          6           0        0.182121   -1.414034    0.168415
      2          6           0       -0.511686   -0.895209   -0.958172
      3          6           0       -0.688247    0.486317   -1.120495
      4          6           0       -0.182151    1.414009   -0.168331
      5          6           0        0.511529    0.895153    0.958350
      6          1           0       -0.915657   -1.582160   -1.712931
      7          1           0       -1.227809    0.865267   -1.999310
      8          1           0        0.915507    1.582143    1.713066
      9          6           0       -0.398570    2.879122   -0.390213
     10          6           0        0.012330    3.880070    0.407511
     11          1           0        0.568757    3.706220    1.335574
     12          1           0       -0.953463    3.123266   -1.308594
     13          1           0       -0.195575    4.927148    0.158291
     14          6           0        0.398681   -2.879147    0.390202
     15          1           0        0.953694   -3.123405    1.308489
     16          6           0       -0.012300   -3.879982   -0.407620
     17          1           0       -0.568826   -3.706000   -1.335619
     18          1           0        0.195769   -4.927097   -0.158666
     19          6           0        0.688184   -0.486336    1.120620
     20          1           0        1.227713   -0.865344    1.999433
 ---------------------------------------------------------------------
                    Distance matrix (angstroms):
                    1          2          3          4          5
     1  C    0.000000
     2  C    1.421177   0.000000
     3  C    2.455639   1.402191   0.000000
     4  C    2.871223   2.462708   1.422448   0.000000
     5  C    2.462692   2.815213   2.434790   1.421202   0.000000
     6  H    2.184685   1.097614   2.163630   3.449761   3.912759
     7  H    3.447049   2.167044   1.098657   2.178762   3.431318
     8  H    3.449765   3.912757   3.435393   2.184669   1.097610
     9  C    4.368119   3.818501   2.518479   1.497540   2.565743
    10  C    5.302220   4.994294   3.787237   2.539857   3.076094
    11  H    5.265810   5.253740   4.240296   2.842504   2.836842
    12  H    4.904916   4.057845   2.656919   2.194694   3.499961
    13  H    6.352429   5.936856   4.647472   3.528315   4.170980
    14  C    1.497546   2.565714   3.845773   4.368125   3.818490
    15  H    2.194776   3.499992   4.650379   4.905025   4.057945
    16  C    2.539786   3.075932   4.475451   5.302117   4.994215
    17  H    2.842383   2.836595   4.199531   5.265602   5.253577
    18  H    3.528282   4.170829   5.568810   6.352364   5.936836
    19  C    1.422469   2.434797   2.804141   2.455644   1.402159
    20  H    2.178749   3.431300   3.902798   3.447081   2.167054
                    6          7          8          9         10
     6  H    0.000000
     7  H    2.483818   0.000000
     8  H    5.010332   4.346200   0.000000
     9  C    4.681880   2.707848   2.798703   0.000000
    10  C    5.932402   4.052132   2.792969   1.344284   0.000000
    11  H    6.282025   4.734989   2.185049   2.144331   1.095964
    12  H    4.722918   2.377165   3.872795   1.100425   2.109626
    13  H    6.811100   4.713770   3.852387   2.129900   1.096224
    14  C    2.798719   4.730315   4.681900   5.865349   6.770272
    15  H    3.872840   5.622277   4.723063   6.383145   7.123665
    16  C    2.792826   5.150565   5.932363   6.770154   7.802785
    17  H    2.184800   4.665964   6.281893   6.654818   7.805428
    18  H    3.852221   6.242277   6.811138   7.832235   8.827253
    19  C    3.435425   3.902796   2.163625   3.845771   4.475579
    20  H    4.346205   5.001454   2.483882   4.730352   5.150760
                   11         12         13         14         15
    11  H    0.000000
    12  H    3.106222   0.000000
    13  H    1.860340   2.445431   0.000000
    14  C    6.655052   6.383038   7.832316   0.000000
    15  H    6.840519   7.036141   8.213110   1.100433   0.000000
    16  C    7.805563   7.123414   8.827195   1.344282   2.109640
    17  H    7.960551   6.840142   8.769397   2.144344   3.106250
    18  H    8.769608   8.212881   9.867104   2.129912   2.445464
    19  C    4.199761   4.650302   5.568924   2.518505   2.657052
    20  H    4.666276   5.622240   6.242477   2.707825   2.377252
                   16         17         18         19         20
    16  C    0.000000
    17  H    1.095980   0.000000
    18  H    1.096230   1.860350   0.000000
    19  C    3.787218   4.240214   4.647515   0.000000
    20  H    4.052107   4.734917   4.713823   1.098659   0.000000
 Stoichiometry    C10H10
 Framework group  C1[X(C10H10)]
 Deg. of freedom    54
 Full point group                 C1      NOp   1
 Largest Abelian subgroup         C1      NOp   1
 Largest concise Abelian subgroup C1      NOp   1
                         Standard orientation:                         
 ---------------------------------------------------------------------
 Center     Atomic      Atomic             Coordinates (Angstroms)
 Number     Number       Type             X           Y           Z
 ---------------------------------------------------------------------
      1          6           0       -1.415124    0.241742    0.000032
      2          6           0       -0.899583   -1.082631   -0.000096
      3          6           0        0.483014   -1.316217   -0.000054
      4          6           0        1.415105   -0.241710   -0.000069
      5          6           0        0.899542    1.082680   -0.000099
      6          1           0       -1.589966   -1.935934   -0.000050
      7          1           0        0.859365   -2.348403   -0.000031
      8          1           0        1.589962    1.935950   -0.000115
      9          6           0        2.881177   -0.547093    0.000067
     10          6           0        3.886075    0.345812    0.000070
     11          1           0        3.715242    1.428379   -0.000035
     12          1           0        3.122423   -1.620749    0.000135
     13          1           0        4.933519    0.022440    0.000276
     14          6           0       -2.881204    0.547115    0.000066
     15          1           0       -3.122571    1.620751    0.000143
     16          6           0       -3.885988   -0.345916    0.000049
     17          1           0       -3.715016   -1.428478    0.000042
     18          1           0       -4.933482   -0.022690    0.000116
     19          6           0       -0.483023    1.316268   -0.000031
     20          1           0       -0.859431    2.348435   -0.000085
 ---------------------------------------------------------------------
 Rotational constants (GHZ):      4.6265238      0.6849150      0.5965946
 Leave Link  202 at Fri Jan 24 09:38:31 2014, MaxMem=   13107200 cpu:       0.0
 (Enter /share/apps/g09/l601.exe)
 Copying SCF densities to generalized density rwf, IOpCl= 0 IROHF=0.

 **********************************************************************

            Population analysis using the SCF density.

 **********************************************************************

 Orbital symmetries:
       Occupied  (A) (A) (A) (A) (A) (A) (A) (A) (A) (A) (A) (A)
                 (A) (A) (A) (A) (A) (A) (A) (A) (A) (A) (A) (A)
                 (A) (A) (A) (A) (A) (A) (A) (A) (A) (A) (A)
       Virtual   (A) (A) (A) (A) (A) (A) (A) (A) (A) (A) (A) (A)
                 (A) (A) (A) (A) (A) (A) (A) (A) (A) (A) (A) (A)
                 (A)
 The electronic state is 1-A.
 Alpha  occ. eigenvalues --  -10.02022 -10.02017 -10.00811 -10.00811 -10.00679
 Alpha  occ. eigenvalues --  -10.00679 -10.00606 -10.00592  -9.99233  -9.99233
 Alpha  occ. eigenvalues --   -0.80950  -0.75399  -0.71796  -0.69978  -0.66751
 Alpha  occ. eigenvalues --   -0.58870  -0.55893  -0.53167  -0.51017  -0.45744
 Alpha  occ. eigenvalues --   -0.43936  -0.41061  -0.39795  -0.39606  -0.37398
 Alpha  occ. eigenvalues --   -0.35115  -0.34729  -0.32450  -0.31125  -0.29280
 Alpha  occ. eigenvalues --   -0.28745  -0.26355  -0.21244  -0.19505  -0.15308
 Alpha virt. eigenvalues --    0.03741   0.09036   0.11061   0.18221   0.27252
 Alpha virt. eigenvalues --    0.33224   0.34073   0.37940   0.38146   0.41098
 Alpha virt. eigenvalues --    0.41197   0.42673   0.43964   0.45276   0.47824
 Alpha virt. eigenvalues --    0.52625   0.54580   0.57599   0.59942   0.62502
 Alpha virt. eigenvalues --    0.63966   0.68285   0.71722   0.77953   0.79457
          Condensed to atoms (all electrons):
              1          2          3          4          5          6
     1  C    4.778690   0.488315  -0.027147  -0.009776  -0.026983  -0.024569
     2  C    0.488315   4.810703   0.508947  -0.026982  -0.010505   0.387882
     3  C   -0.027147   0.508947   4.815054   0.488806  -0.030710  -0.025268
     4  C   -0.009776  -0.026982   0.488806   4.778690   0.488295   0.001330
     5  C   -0.026983  -0.010505  -0.030710   0.488295   4.810696   0.000032
     6  H   -0.024569   0.387882  -0.025268   0.001330   0.000032   0.586982
     7  H    0.001335  -0.025210   0.387924  -0.025297   0.001342  -0.003825
     8  H    0.001330   0.000032   0.001346  -0.024570   0.387882   0.000002
     9  C    0.000016   0.000818  -0.028766   0.411880  -0.024075  -0.000015
    10  C    0.000000  -0.000007   0.000680  -0.023784  -0.003965   0.000000
    11  H    0.000000   0.000000   0.000012  -0.003529  -0.000561   0.000000
    12  H   -0.000001   0.000022  -0.003964  -0.026075   0.001086  -0.000002
    13  H    0.000000   0.000000  -0.000016   0.001320   0.000018   0.000000
    14  C    0.411878  -0.024076   0.000749   0.000016   0.000818  -0.003041
    15  H   -0.026070   0.001086  -0.000017  -0.000001   0.000022   0.000019
    16  C   -0.023788  -0.003968   0.000015   0.000000  -0.000007  -0.000606
    17  H   -0.003530  -0.000562  -0.000012   0.000000   0.000000   0.000562
    18  H    0.001320   0.000018   0.000000   0.000000   0.000000  -0.000017
    19  C    0.488788  -0.030709  -0.011063  -0.027146   0.508969   0.001346
    20  H   -0.025298   0.001342   0.000039   0.001335  -0.025209  -0.000034
              7          8          9         10         11         12
     1  C    0.001335   0.001330   0.000016   0.000000   0.000000  -0.000001
     2  C   -0.025210   0.000032   0.000818  -0.000007   0.000000   0.000022
     3  C    0.387924   0.001346  -0.028766   0.000680   0.000012  -0.003964
     4  C   -0.025297  -0.024570   0.411880  -0.023784  -0.003529  -0.026075
     5  C    0.001342   0.387882  -0.024075  -0.003965  -0.000561   0.001086
     6  H   -0.003825   0.000002  -0.000015   0.000000   0.000000  -0.000002
     7  H    0.588878  -0.000034  -0.003901   0.000029   0.000001   0.001033
     8  H   -0.000034   0.586981  -0.003041  -0.000605   0.000562   0.000019
     9  C   -0.003901  -0.003041   4.798253   0.586084  -0.023812   0.386251
    10  C    0.000029  -0.000605   0.586084   4.849824   0.385954  -0.027668
    11  H    0.000001   0.000562  -0.023812   0.385954   0.586736   0.002045
    12  H    0.001033   0.000019   0.386251  -0.027668   0.002045   0.595488
    13  H   -0.000002  -0.000017  -0.024049   0.388269  -0.023728  -0.005094
    14  C   -0.000014  -0.000015   0.000000   0.000000   0.000000   0.000000
    15  H    0.000000  -0.000002   0.000000   0.000000   0.000000   0.000000
    16  C    0.000000   0.000000   0.000000   0.000000   0.000000   0.000000
    17  H    0.000002   0.000000   0.000000   0.000000   0.000000   0.000000
    18  H    0.000000   0.000000   0.000000   0.000000   0.000000   0.000000
    19  C    0.000039  -0.025267   0.000749   0.000015  -0.000012  -0.000017
    20  H    0.000002  -0.003825  -0.000014   0.000000   0.000002   0.000000
             13         14         15         16         17         18
     1  C    0.000000   0.411878  -0.026070  -0.023788  -0.003530   0.001320
     2  C    0.000000  -0.024076   0.001086  -0.003968  -0.000562   0.000018
     3  C   -0.000016   0.000749  -0.000017   0.000015  -0.000012   0.000000
     4  C    0.001320   0.000016  -0.000001   0.000000   0.000000   0.000000
     5  C    0.000018   0.000818   0.000022  -0.000007   0.000000   0.000000
     6  H    0.000000  -0.003041   0.000019  -0.000606   0.000562  -0.000017
     7  H   -0.000002  -0.000014   0.000000   0.000000   0.000002   0.000000
     8  H   -0.000017  -0.000015  -0.000002   0.000000   0.000000   0.000000
     9  C   -0.024049   0.000000   0.000000   0.000000   0.000000   0.000000
    10  C    0.388269   0.000000   0.000000   0.000000   0.000000   0.000000
    11  H   -0.023728   0.000000   0.000000   0.000000   0.000000   0.000000
    12  H   -0.005094   0.000000   0.000000   0.000000   0.000000   0.000000
    13  H    0.583953   0.000000   0.000000   0.000000   0.000000   0.000000
    14  C    0.000000   4.798256   0.386250   0.586085  -0.023811  -0.024049
    15  H    0.000000   0.386250   0.595478  -0.027667   0.002044  -0.005094
    16  C    0.000000   0.586085  -0.027667   4.849827   0.385951   0.388267
    17  H    0.000000  -0.023811   0.002044   0.385951   0.586742  -0.023728
    18  H    0.000000  -0.024049  -0.005094   0.388267  -0.023728   0.583958
    19  C    0.000000  -0.028764  -0.003962   0.000680   0.000012  -0.000016
    20  H    0.000000  -0.003901   0.001033   0.000029   0.000001  -0.000002
             19         20
     1  C    0.488788  -0.025298
     2  C   -0.030709   0.001342
     3  C   -0.011063   0.000039
     4  C   -0.027146   0.001335
     5  C    0.508969  -0.025209
     6  H    0.001346  -0.000034
     7  H    0.000039   0.000002
     8  H   -0.025267  -0.003825
     9  C    0.000749  -0.000014
    10  C    0.000015   0.000000
    11  H   -0.000012   0.000002
    12  H   -0.000017   0.000000
    13  H    0.000000   0.000000
    14  C   -0.028764  -0.003901
    15  H   -0.003962   0.001033
    16  C    0.000680   0.000029
    17  H    0.000012   0.000001
    18  H   -0.000016  -0.000002
    19  C    4.815047   0.387925
    20  H    0.387925   0.588876
 Mulliken atomic charges:
              1
     1  C   -0.004510
     2  C   -0.077146
     3  C   -0.076612
     4  C   -0.004513
     5  C   -0.077146
     6  H    0.079221
     7  H    0.077697
     8  H    0.079222
     9  C   -0.076378
    10  C   -0.154825
    11  H    0.076330
    12  H    0.076876
    13  H    0.079347
    14  C   -0.076379
    15  H    0.076879
    16  C   -0.154817
    17  H    0.076328
    18  H    0.079343
    19  C   -0.076615
    20  H    0.077699
 Sum of Mulliken atomic charges =   0.00000
 Mulliken charges with hydrogens summed into heavy atoms:
              1
     1  C   -0.004510
     2  C    0.002075
     3  C    0.001085
     4  C   -0.004513
     5  C    0.002076
     9  C    0.000498
    10  C    0.000851
    14  C    0.000500
    16  C    0.000854
    19  C    0.001084
 Sum of Mulliken charges with hydrogens summed into heavy atoms =   0.00000
 Electronic spatial extent (au):  <R**2>=           1861.7852
 Charge=              0.0000 electrons
 Dipole moment (field-independent basis, Debye):
    X=             -0.0001    Y=              0.0000    Z=              0.0001  Tot=              0.0002
 Quadrupole moment (field-independent basis, Debye-Ang):
   XX=            -50.7143   YY=            -50.2243   ZZ=            -58.6254
   XY=             -0.0688   XZ=              0.0001   YZ=             -0.0002
 Traceless Quadrupole moment (field-independent basis, Debye-Ang):
   XX=              2.4737   YY=              2.9637   ZZ=             -5.4374
   XY=             -0.0688   XZ=              0.0001   YZ=             -0.0002
 Octapole moment (field-independent basis, Debye-Ang**2):
  XXX=             -0.0007  YYY=             -0.0002  ZZZ=              0.0000  XYY=             -0.0006
  XXY=              0.0004  XXZ=              0.0036  XZZ=              0.0000  YZZ=              0.0000
  YYZ=              0.0000  XYZ=             -0.0007
 Hexadecapole moment (field-independent basis, Debye-Ang**3):
 XXXX=          -1862.1323 YYYY=           -329.6022 ZZZZ=            -47.6115 XXXY=             -6.8337
 XXXZ=              0.0070 YYYX=             -1.3817 YYYZ=             -0.0011 ZZZX=              0.0000
 ZZZY=             -0.0001 XXYY=           -367.9474 XXZZ=           -367.6617 YYZZ=            -72.1435
 XXYZ=             -0.0013 YYXZ=             -0.0006 ZZXY=              0.0207
 N-N= 4.458955115860D+02 E-N=-1.776406906816D+03  KE= 3.758472683883D+02
 No NMR shielding tensors so no spin-rotation constants.
 Leave Link  601 at Fri Jan 24 09:38:31 2014, MaxMem=   13107200 cpu:       0.7
 (Enter /share/apps/g09/l9999.exe)
 1\1\GINC-COMPUTE-1-0\Scan\RB3LYP\STO-3G\C10H10\ADAM\24-Jan-2014\0\\#p 
 b3lyp/sto-3g opt=modredundant\\DVB scan dihedral\\0,1\C,0.1821211638,-
 1.4140344915,0.1684150775\C,-0.5116857701,-0.8952094604,-0.9581717777\
 C,-0.6882465879,0.4863173188,-1.1204946225\C,-0.1821513121,1.414008872
 5,-0.1683311093\C,0.5115288443,0.8951529375,0.9583504479\H,-0.91565695
 14,-1.5821600763,-1.7129311071\H,-1.2278093805,0.8652667393,-1.9993098
 947\H,0.9155069551,1.5821428051,1.713065894\C,-0.3985699679,2.87912204
 86,-0.3902134106\C,0.01233008,3.8800702199,0.4075105154\H,0.5687569452
 ,3.7062200694,1.3355743782\H,-0.9534631577,3.123266115,-1.3085938526\H
 ,-0.195574845,4.9271478725,0.1582907052\C,0.398680965,-2.8791473082,0.
 3902021838\H,0.9536938742,-3.1234054735,1.3084889363\C,-0.0122999075,-
 3.8799815424,-0.4076198204\H,-0.5688261894,-3.7059996944,-1.3356186536
 \H,0.1957689273,-4.9270965165,-0.158666039\C,0.6881836712,-0.486336010
 1,1.1206195516\H,1.2277126433,-0.8653444252,1.9994325979\\Version=IA32
 L-G09RevA.02\State=1-A\HF=-382.3082666,-382.3069469,-382.3026498,-382.
 2995559,-382.3026026,-382.3069515,-382.3082805,-382.3069515,-382.30260
 27,-382.2995559,-382.3026498,-382.3069469,-382.3082597\RMSD=3.543e-09,
 5.831e-09,4.077e-09,1.569e-09,3.509e-09,3.089e-09,4.388e-09,2.754e-09,
 2.661e-09,2.130e-09,2.431e-09,5.531e-09,8.867e-09\PG=C01 [X(C10H10)]\\
 @


 SUCCESS IS COUNTED SWEETEST
 BY THOSE WHO NE'ER SUCCEED.
 TO COMPREHEND NECTAR
 REQUIRES SOREST NEED.
           EMILY DICKINSON
 Job cpu time:  0 days  0 hours 50 minutes  3.2 seconds.
 File lengths (MBytes):  RWF=      9 Int=      0 D2E=      0 Chk=      3 Scr=      1
 Normal termination of Gaussian 09 at Fri Jan 24 09:38:32 2014.
