S1 freq                                                                 
Freq      RTD-B3LYP-FC                                                STO-3G              
Number of atoms                            I               20
Info1-9                                    I   N=           9
          29          29           0           0           0         100
           6         218        -501
Charge                                     I                0
Multiplicity                               I                1
Number of electrons                        I               70
Number of alpha electrons                  I               35
Number of beta electrons                   I               35
Number of basis functions                  I               60
Number of independent functions            I               60
Number of point charges in /Mol/           I                0
Number of translation vectors              I                0
Atomic numbers                             I   N=          20
           6           6           6           6           6           1
           1           1           6           6           1           1
           1           6           1           6           1           1
           6           1
Nuclear charges                            R   N=          20
  6.00000000E+00  6.00000000E+00  6.00000000E+00  6.00000000E+00  6.00000000E+00
  1.00000000E+00  1.00000000E+00  1.00000000E+00  6.00000000E+00  6.00000000E+00
  1.00000000E+00  1.00000000E+00  1.00000000E+00  6.00000000E+00  1.00000000E+00
  6.00000000E+00  1.00000000E+00  1.00000000E+00  6.00000000E+00  1.00000000E+00
Current cartesian coordinates              R   N=          60
  5.28868204E-01  2.75249383E+00  0.00000000E+00 -2.02477730E+00  1.79232209E+00
  0.00000000E+00 -2.53117855E+00 -8.89543224E-01  0.00000000E+00 -5.28868204E-01
 -2.75249383E+00  0.00000000E+00  2.02477730E+00 -1.79232209E+00  0.00000000E+00
 -3.62595170E+00  3.10997710E+00  0.00000000E+00 -4.50466679E+00 -1.53883045E+00
  0.00000000E+00  3.62595170E+00 -3.10997710E+00  0.00000000E+00 -1.14816358E+00
 -5.44553687E+00  0.00000000E+00  5.22858875E-01 -7.40868831E+00  0.00000000E+00
  2.57263536E+00 -7.12811311E+00  0.00000000E+00 -3.18093254E+00 -5.87769078E+00
  0.00000000E+00 -1.36986247E-01 -9.36999916E+00  0.00000000E+00  1.14816358E+00
  5.44553687E+00  0.00000000E+00  3.18093254E+00  5.87769078E+00  0.00000000E+00
 -5.22858875E-01  7.40868831E+00  0.00000000E+00 -2.57263536E+00  7.12811311E+00
  0.00000000E+00  1.36986247E-01  9.36999916E+00  0.00000000E+00  2.53117855E+00
  8.89543224E-01  0.00000000E+00  4.50466679E+00  1.53883045E+00  0.00000000E+00
Force Field                                I                0
Int Atom Types                             I   N=          20
           0           0           0           0           0           0
           0           0           0           0           0           0
           0           0           0           0           0           0
           0           0
MM charges                                 R   N=          20
  0.00000000E+00  0.00000000E+00  0.00000000E+00  0.00000000E+00  0.00000000E+00
  0.00000000E+00  0.00000000E+00  0.00000000E+00  0.00000000E+00  0.00000000E+00
  0.00000000E+00  0.00000000E+00  0.00000000E+00  0.00000000E+00  0.00000000E+00
  0.00000000E+00  0.00000000E+00  0.00000000E+00  0.00000000E+00  0.00000000E+00
Integer atomic weights                     I   N=          20
          12          12          12          12          12           1
           1           1          12          12           1           1
           1          12           1          12           1           1
          12           1
Real atomic weights                        R   N=          20
  1.20000000E+01  1.20000000E+01  1.20000000E+01  1.20000000E+01  1.20000000E+01
  1.00782504E+00  1.00782504E+00  1.00782504E+00  1.20000000E+01  1.20000000E+01
  1.00782504E+00  1.00782504E+00  1.00782504E+00  1.20000000E+01  1.00782504E+00
  1.20000000E+01  1.00782504E+00  1.00782504E+00  1.20000000E+01  1.00782504E+00
Atom fragment info                         I   N=          20
           0           0           0           0           0           0
           0           0           0           0           0           0
           0           0           0           0           0           0
           0           0
Atom residue num                           I   N=          20
           0           0           0           0           0           0
           0           0           0           0           0           0
           0           0           0           0           0           0
           0           0
Nuclear spins                              I   N=          20
           0           0           0           0           0           1
           1           1           0           0           1           1
           1           0           1           0           1           1
           0           1
Nuclear ZEff                               R   N=          20
 -3.60000000E+00 -3.60000000E+00 -3.60000000E+00 -3.60000000E+00 -3.60000000E+00
 -1.00000000E+00 -1.00000000E+00 -1.00000000E+00 -3.60000000E+00 -3.60000000E+00
 -1.00000000E+00 -1.00000000E+00 -1.00000000E+00 -3.60000000E+00 -1.00000000E+00
 -3.60000000E+00 -1.00000000E+00 -1.00000000E+00 -3.60000000E+00 -1.00000000E+00
Nuclear QMom                               R   N=          20
  0.00000000E+00  0.00000000E+00  0.00000000E+00  0.00000000E+00  0.00000000E+00
  0.00000000E+00  0.00000000E+00  0.00000000E+00  0.00000000E+00  0.00000000E+00
  0.00000000E+00  0.00000000E+00  0.00000000E+00  0.00000000E+00  0.00000000E+00
  0.00000000E+00  0.00000000E+00  0.00000000E+00  0.00000000E+00  0.00000000E+00
Nuclear GFac                               R   N=          20
  0.00000000E+00  0.00000000E+00  0.00000000E+00  0.00000000E+00  0.00000000E+00
  2.79284600E+00  2.79284600E+00  2.79284600E+00  0.00000000E+00  0.00000000E+00
  2.79284600E+00  2.79284600E+00  2.79284600E+00  0.00000000E+00  2.79284600E+00
  0.00000000E+00  2.79284600E+00  2.79284600E+00  0.00000000E+00  2.79284600E+00
MicOpt                                     I   N=          20
          -1          -1          -1          -1          -1          -1
          -1          -1          -1          -1          -1          -1
          -1          -1          -1          -1          -1          -1
          -1          -1
Number of contracted shells                I               30
Number of primitive shells                 I               90
Pure/Cartesian d shells                    I                0
Pure/Cartesian f shells                    I                0
Highest angular momentum                   I                1
Largest degree of contraction              I                3
Shell types                                I   N=          30
           0          -1           0          -1           0          -1
           0          -1           0          -1           0           0
           0           0          -1           0          -1           0
           0           0           0          -1           0           0
          -1           0           0           0          -1           0
Number of primitives per shell             I   N=          30
           3           3           3           3           3           3
           3           3           3           3           3           3
           3           3           3           3           3           3
           3           3           3           3           3           3
           3           3           3           3           3           3
Shell to atom map                          I   N=          30
           1           1           2           2           3           3
           4           4           5           5           6           7
           8           9           9          10          10          11
          12          13          14          14          15          16
          16          17          18          19          19          20
Primitive exponents                        R   N=          90
  7.16168373E+01  1.30450963E+01  3.53051216E+00  2.94124936E+00  6.83483096E-01
  2.22289916E-01  7.16168373E+01  1.30450963E+01  3.53051216E+00  2.94124936E+00
  6.83483096E-01  2.22289916E-01  7.16168373E+01  1.30450963E+01  3.53051216E+00
  2.94124936E+00  6.83483096E-01  2.22289916E-01  7.16168373E+01  1.30450963E+01
  3.53051216E+00  2.94124936E+00  6.83483096E-01  2.22289916E-01  7.16168373E+01
  1.30450963E+01  3.53051216E+00  2.94124936E+00  6.83483096E-01  2.22289916E-01
  3.42525091E+00  6.23913730E-01  1.68855404E-01  3.42525091E+00  6.23913730E-01
  1.68855404E-01  3.42525091E+00  6.23913730E-01  1.68855404E-01  7.16168373E+01
  1.30450963E+01  3.53051216E+00  2.94124936E+00  6.83483096E-01  2.22289916E-01
  7.16168373E+01  1.30450963E+01  3.53051216E+00  2.94124936E+00  6.83483096E-01
  2.22289916E-01  3.42525091E+00  6.23913730E-01  1.68855404E-01  3.42525091E+00
  6.23913730E-01  1.68855404E-01  3.42525091E+00  6.23913730E-01  1.68855404E-01
  7.16168373E+01  1.30450963E+01  3.53051216E+00  2.94124936E+00  6.83483096E-01
  2.22289916E-01  3.42525091E+00  6.23913730E-01  1.68855404E-01  7.16168373E+01
  1.30450963E+01  3.53051216E+00  2.94124936E+00  6.83483096E-01  2.22289916E-01
  3.42525091E+00  6.23913730E-01  1.68855404E-01  3.42525091E+00  6.23913730E-01
  1.68855404E-01  7.16168373E+01  1.30450963E+01  3.53051216E+00  2.94124936E+00
  6.83483096E-01  2.22289916E-01  3.42525091E+00  6.23913730E-01  1.68855404E-01
Contraction coefficients                   R   N=          90
  1.54328967E-01  5.35328142E-01  4.44634542E-01 -9.99672292E-02  3.99512826E-01
  7.00115469E-01  1.54328967E-01  5.35328142E-01  4.44634542E-01 -9.99672292E-02
  3.99512826E-01  7.00115469E-01  1.54328967E-01  5.35328142E-01  4.44634542E-01
 -9.99672292E-02  3.99512826E-01  7.00115469E-01  1.54328967E-01  5.35328142E-01
  4.44634542E-01 -9.99672292E-02  3.99512826E-01  7.00115469E-01  1.54328967E-01
  5.35328142E-01  4.44634542E-01 -9.99672292E-02  3.99512826E-01  7.00115469E-01
  1.54328967E-01  5.35328142E-01  4.44634542E-01  1.54328967E-01  5.35328142E-01
  4.44634542E-01  1.54328967E-01  5.35328142E-01  4.44634542E-01  1.54328967E-01
  5.35328142E-01  4.44634542E-01 -9.99672292E-02  3.99512826E-01  7.00115469E-01
  1.54328967E-01  5.35328142E-01  4.44634542E-01 -9.99672292E-02  3.99512826E-01
  7.00115469E-01  1.54328967E-01  5.35328142E-01  4.44634542E-01  1.54328967E-01
  5.35328142E-01  4.44634542E-01  1.54328967E-01  5.35328142E-01  4.44634542E-01
  1.54328967E-01  5.35328142E-01  4.44634542E-01 -9.99672292E-02  3.99512826E-01
  7.00115469E-01  1.54328967E-01  5.35328142E-01  4.44634542E-01  1.54328967E-01
  5.35328142E-01  4.44634542E-01 -9.99672292E-02  3.99512826E-01  7.00115469E-01
  1.54328967E-01  5.35328142E-01  4.44634542E-01  1.54328967E-01  5.35328142E-01
  4.44634542E-01  1.54328967E-01  5.35328142E-01  4.44634542E-01 -9.99672292E-02
  3.99512826E-01  7.00115469E-01  1.54328967E-01  5.35328142E-01  4.44634542E-01
P(S=P) Contraction coefficients            R   N=          90
  0.00000000E+00  0.00000000E+00  0.00000000E+00  1.55916275E-01  6.07683719E-01
  3.91957393E-01  0.00000000E+00  0.00000000E+00  0.00000000E+00  1.55916275E-01
  6.07683719E-01  3.91957393E-01  0.00000000E+00  0.00000000E+00  0.00000000E+00
  1.55916275E-01  6.07683719E-01  3.91957393E-01  0.00000000E+00  0.00000000E+00
  0.00000000E+00  1.55916275E-01  6.07683719E-01  3.91957393E-01  0.00000000E+00
  0.00000000E+00  0.00000000E+00  1.55916275E-01  6.07683719E-01  3.91957393E-01
  0.00000000E+00  0.00000000E+00  0.00000000E+00  0.00000000E+00  0.00000000E+00
  0.00000000E+00  0.00000000E+00  0.00000000E+00  0.00000000E+00  0.00000000E+00
  0.00000000E+00  0.00000000E+00  1.55916275E-01  6.07683719E-01  3.91957393E-01
  0.00000000E+00  0.00000000E+00  0.00000000E+00  1.55916275E-01  6.07683719E-01
  3.91957393E-01  0.00000000E+00  0.00000000E+00  0.00000000E+00  0.00000000E+00
  0.00000000E+00  0.00000000E+00  0.00000000E+00  0.00000000E+00  0.00000000E+00
  0.00000000E+00  0.00000000E+00  0.00000000E+00  1.55916275E-01  6.07683719E-01
  3.91957393E-01  0.00000000E+00  0.00000000E+00  0.00000000E+00  0.00000000E+00
  0.00000000E+00  0.00000000E+00  1.55916275E-01  6.07683719E-01  3.91957393E-01
  0.00000000E+00  0.00000000E+00  0.00000000E+00  0.00000000E+00  0.00000000E+00
  0.00000000E+00  0.00000000E+00  0.00000000E+00  0.00000000E+00  1.55916275E-01
  6.07683719E-01  3.91957393E-01  0.00000000E+00  0.00000000E+00  0.00000000E+00
Coordinates of each shell                  R   N=          90
  5.28868204E-01  2.75249383E+00  0.00000000E+00  5.28868204E-01  2.75249383E+00
  0.00000000E+00 -2.02477730E+00  1.79232209E+00  0.00000000E+00 -2.02477730E+00
  1.79232209E+00  0.00000000E+00 -2.53117855E+00 -8.89543224E-01  0.00000000E+00
 -2.53117855E+00 -8.89543224E-01  0.00000000E+00 -5.28868204E-01 -2.75249383E+00
  0.00000000E+00 -5.28868204E-01 -2.75249383E+00  0.00000000E+00  2.02477730E+00
 -1.79232209E+00  0.00000000E+00  2.02477730E+00 -1.79232209E+00  0.00000000E+00
 -3.62595170E+00  3.10997710E+00  0.00000000E+00 -4.50466679E+00 -1.53883045E+00
  0.00000000E+00  3.62595170E+00 -3.10997710E+00  0.00000000E+00 -1.14816358E+00
 -5.44553687E+00  0.00000000E+00 -1.14816358E+00 -5.44553687E+00  0.00000000E+00
  5.22858875E-01 -7.40868831E+00  0.00000000E+00  5.22858875E-01 -7.40868831E+00
  0.00000000E+00  2.57263536E+00 -7.12811311E+00  0.00000000E+00 -3.18093254E+00
 -5.87769078E+00  0.00000000E+00 -1.36986247E-01 -9.36999916E+00  0.00000000E+00
  1.14816358E+00  5.44553687E+00  0.00000000E+00  1.14816358E+00  5.44553687E+00
  0.00000000E+00  3.18093254E+00  5.87769078E+00  0.00000000E+00 -5.22858875E-01
  7.40868831E+00  0.00000000E+00 -5.22858875E-01  7.40868831E+00  0.00000000E+00
 -2.57263536E+00  7.12811311E+00  0.00000000E+00  1.36986247E-01  9.36999916E+00
  0.00000000E+00  2.53117855E+00  8.89543224E-01  0.00000000E+00  2.53117855E+00
  8.89543224E-01  0.00000000E+00  4.50466679E+00  1.53883045E+00  0.00000000E+00
Constraint Structure                       R   N=          60
  5.28868204E-01  2.75249383E+00  0.00000000E+00 -2.02477730E+00  1.79232209E+00
  0.00000000E+00 -2.53117855E+00 -8.89543224E-01  0.00000000E+00 -5.28868204E-01
 -2.75249383E+00  0.00000000E+00  2.02477730E+00 -1.79232209E+00  0.00000000E+00
 -3.62595170E+00  3.10997710E+00  0.00000000E+00 -4.50466679E+00 -1.53883045E+00
  0.00000000E+00  3.62595170E+00 -3.10997710E+00  0.00000000E+00 -1.14816358E+00
 -5.44553687E+00  0.00000000E+00  5.22858875E-01 -7.40868831E+00  0.00000000E+00
  2.57263536E+00 -7.12811311E+00  0.00000000E+00 -3.18093254E+00 -5.87769078E+00
  0.00000000E+00 -1.36986247E-01 -9.36999916E+00  0.00000000E+00  1.14816358E+00
  5.44553687E+00  0.00000000E+00  3.18093254E+00  5.87769078E+00  0.00000000E+00
 -5.22858875E-01  7.40868831E+00  0.00000000E+00 -2.57263536E+00  7.12811311E+00
  0.00000000E+00  1.36986247E-01  9.36999916E+00  0.00000000E+00  2.53117855E+00
  8.89543224E-01  0.00000000E+00  4.50466679E+00  1.53883045E+00  0.00000000E+00
Num ILSW                                   I              100
ILSW                                       I   N=         100
           0           0           0           0           2           0
           0           0           0           0         402          -1
           0           0           0           0           0           0
           0           0           0           0           1           0
           1           1           0           0           0           0
           0           0      100000           0          -1           0
           0           0           0           0           0           0
           0           0           0           1           0           0
           0           0           1           0           0           0
           0           0           4          40           0           0
           0           0           5           0           0           0
           0           0           0           0           0           0
           0           0           0           0           0           0
           0           0           0           0           0           0
           0           0           0           0           0           0
           0           0           0           0           0           0
           0           0           0           0
Num RLSW                                   I               40
RLSW                                       R   N=          40
  8.00000000E-01  7.20000000E-01  1.00000000E+00  8.10000000E-01  2.00000000E-01
  0.00000000E+00  0.00000000E+00  1.00000000E+00  0.00000000E+00  0.00000000E+00
  0.00000000E+00  0.00000000E+00  1.00000000E+00  0.00000000E+00  0.00000000E+00
  0.00000000E+00  0.00000000E+00  1.00000000E+00  0.00000000E+00  0.00000000E+00
  0.00000000E+00  0.00000000E+00  1.00000000E+00  0.00000000E+00  0.00000000E+00
  0.00000000E+00  0.00000000E+00  1.00000000E+00  0.00000000E+00  0.00000000E+00
  0.00000000E+00  0.00000000E+00  0.00000000E+00  0.00000000E+00  0.00000000E+00
  0.00000000E+00  0.00000000E+00  0.00000000E+00  1.00000000E+00  1.00000000E+00
MxBond                                     I                3
NBond                                      I   N=          20
           3           3           3           3           3           1
           1           1           3           3           1           1
           1           3           1           3           1           1
           3           1
IBond                                      I   N=          60
           2          14          19           1           3           6
           2           4           7           3           5           9
           4           8          19           2           0           0
           3           0           0           5           0           0
           4          10          12           9          11          13
          10           0           0           9           0           0
          10           0           0           1          15          16
          14           0           0          14          17          18
          16           0           0          16           0           0
           1           5          20          19           0           0
RBond                                      R   N=          60
  1.00000000E+00  1.00000000E+00  1.00000000E+00  1.00000000E+00  1.00000000E+00
  1.00000000E+00  1.00000000E+00  1.00000000E+00  1.00000000E+00  1.00000000E+00
  1.00000000E+00  1.00000000E+00  1.00000000E+00  1.00000000E+00  1.00000000E+00
  1.00000000E+00  0.00000000E+00  0.00000000E+00  1.00000000E+00  0.00000000E+00
  0.00000000E+00  1.00000000E+00  0.00000000E+00  0.00000000E+00  1.00000000E+00
  2.00000000E+00  1.00000000E+00  2.00000000E+00  1.00000000E+00  1.00000000E+00
  1.00000000E+00  0.00000000E+00  0.00000000E+00  1.00000000E+00  0.00000000E+00
  0.00000000E+00  1.00000000E+00  0.00000000E+00  0.00000000E+00  1.00000000E+00
  1.00000000E+00  2.00000000E+00  1.00000000E+00  0.00000000E+00  0.00000000E+00
  2.00000000E+00  1.00000000E+00  1.00000000E+00  1.00000000E+00  0.00000000E+00
  0.00000000E+00  1.00000000E+00  0.00000000E+00  0.00000000E+00  1.00000000E+00
  1.00000000E+00  1.00000000E+00  1.00000000E+00  0.00000000E+00  0.00000000E+00
Virial Ratio                               R      2.017755276189110E+00
SCF Energy                                 R     -3.823005468907546E+02
CIS Energy                                 R     -3.821197320142246E+02
Total Energy                               R     -3.821197320142246E+02
Post-SCF wavefunction norm                 R      1.000000000000000E+00
RMS Force                                  R      3.142447295575381E-06
RMS Density                                R      3.499747290979597E-09
External E-field                           R   N=          35
  0.00000000E+00  0.00000000E+00  0.00000000E+00  0.00000000E+00  0.00000000E+00
  0.00000000E+00  0.00000000E+00  0.00000000E+00  0.00000000E+00  0.00000000E+00
  0.00000000E+00  0.00000000E+00  0.00000000E+00  0.00000000E+00  0.00000000E+00
  0.00000000E+00  0.00000000E+00  0.00000000E+00  0.00000000E+00  0.00000000E+00
  0.00000000E+00  0.00000000E+00  0.00000000E+00  0.00000000E+00  0.00000000E+00
  0.00000000E+00  0.00000000E+00  0.00000000E+00  0.00000000E+00  0.00000000E+00
  0.00000000E+00  0.00000000E+00  0.00000000E+00  0.00000000E+00  0.00000000E+00
IOpCl                                      I                0
IROHF                                      I                0
Alpha Orbital Energies                     R   N=          60
 -1.00208107E+01 -1.00207769E+01 -1.00091561E+01 -1.00091551E+01 -1.00057095E+01
 -1.00057044E+01 -1.00047948E+01 -1.00046564E+01 -9.99253472E+00 -9.99253463E+00
 -7.97802960E-01 -7.54647504E-01 -7.12866650E-01 -6.87639330E-01 -6.62164230E-01
 -5.90441589E-01 -5.56479720E-01 -5.34546986E-01 -5.04394441E-01 -4.53430411E-01
 -4.39907702E-01 -4.11861487E-01 -3.95475782E-01 -3.93533801E-01 -3.64978308E-01
 -3.47100342E-01 -3.44881586E-01 -3.15787971E-01 -3.14935781E-01 -2.95408418E-01
 -2.85296961E-01 -2.64663130E-01 -2.06888133E-01 -1.84266230E-01 -1.46964854E-01
  3.01240589E-02  8.27181679E-02  1.02699998E-01  1.83233262E-01  2.62147543E-01
  3.43207555E-01  3.45065231E-01  3.77884207E-01  3.92171316E-01  3.98281976E-01
  4.03858333E-01  4.28546697E-01  4.31822256E-01  4.46458949E-01  4.62287388E-01
  5.22103516E-01  5.22429388E-01  5.62258025E-01  5.71533252E-01  6.18067465E-01
  6.19113616E-01  6.76772377E-01  6.95130508E-01  7.51187847E-01  7.70836328E-01
Alpha MO coefficients                      R   N=        3600
  6.99374849E-01  3.13399769E-02  2.73282118E-05 -3.95085151E-04 -1.81545977E-16
 -1.86353886E-02 -7.30698332E-03 -4.11626787E-03 -1.31669918E-03  5.15275529E-19
  1.80759273E-02  7.29328625E-03  3.31348668E-03 -2.78009181E-03  3.15020240E-17
 -6.99374848E-01 -3.13399769E-02  2.73282117E-05 -3.95085150E-04 -3.28811970E-16
  1.86353886E-02  7.30698331E-03 -4.11626787E-03 -1.31669918E-03 -1.35480795E-16
  3.14236711E-04 -3.15454274E-04 -3.14236711E-04  2.66720879E-02  7.08542102E-03
  1.03335892E-03  4.09374301E-03 -7.39916733E-17 -1.88663140E-04 -4.68184177E-04
  1.05361348E-05 -2.62487191E-04 -5.15704024E-17  1.41084033E-04 -3.22138428E-04
  3.59531481E-05 -2.66720879E-02 -7.08542102E-03  1.03335892E-03  4.09374302E-03
  1.01173020E-16  3.22138428E-04  1.88663140E-04  4.68184177E-04  1.05361348E-05
 -2.62487191E-04 -7.00412433E-17 -1.41084033E-04 -3.59531481E-05 -1.80759273E-02
 -7.29328626E-03  3.31348668E-03 -2.78009181E-03  2.26953859E-16  3.15454274E-04
  6.99403108E-01  3.11555943E-02  7.99022728E-05 -1.88537612E-04  1.16239600E-16
 -1.82297220E-02 -6.58100327E-03 -3.95875244E-03 -1.71384938E-03  3.47770815E-16
 -1.79699844E-02 -6.58595439E-03 -3.06668816E-03  3.09930980E-03  3.28227249E-16
  6.99403109E-01  3.11555943E-02 -7.99022729E-05  1.88537613E-04  3.42072935E-16
 -1.82297221E-02 -6.58100327E-03  3.95875244E-03  1.71384938E-03  1.70173339E-16
  2.26745836E-04  2.20556203E-04  2.26745836E-04 -2.69236228E-02 -7.13482293E-03
 -1.03898670E-03 -4.12103721E-03 -8.04692214E-16  2.01655091E-04  4.69989071E-04
 -1.09749739E-05  2.67783411E-04 -2.43248649E-16 -1.33851224E-04  3.31436761E-04
 -3.51211310E-05 -2.69236228E-02 -7.13482293E-03  1.03898669E-03  4.12103721E-03
 -4.64403995E-16  3.31436761E-04  2.01655091E-04  4.69989070E-04  1.09749739E-05
 -2.67783411E-04 -5.17289653E-16 -1.33851224E-04 -3.51211310E-05 -1.79699844E-02
 -6.58595438E-03  3.06668815E-03 -3.09930980E-03 -4.53316429E-16  2.20556203E-04
 -2.75460877E-02  4.64610118E-03  8.13411298E-04  4.20284884E-03 -2.29529128E-16
  3.05393012E-03  1.62762856E-04  1.16957625E-04 -2.69149629E-05  5.73595723E-17
 -3.72640919E-03 -2.32006033E-04 -9.59631363E-05  3.62568926E-05  1.49947278E-16
  2.75460885E-02 -4.64610130E-03  8.13411319E-04  4.20284895E-03 -1.26151511E-16
 -3.05393024E-03 -1.62762861E-04  1.16957629E-04 -2.69149638E-05 -1.47831328E-16
  9.30777913E-05  3.08118537E-05 -9.30777939E-05  6.99883349E-01  3.08802095E-02
  6.48816846E-04 -6.59034434E-04 -8.08834998E-17 -9.95842185E-03 -7.39881604E-03
  2.87743752E-03 -3.48633794E-03 -5.10936767E-17  2.02450102E-04 -6.43421449E-03
  2.18499274E-04 -6.99883330E-01 -3.08802087E-02  6.48816829E-04 -6.59034416E-04
 -2.61891714E-16  6.43421432E-03  9.95842159E-03  7.39881585E-03  2.87743745E-03
 -3.48633785E-03  1.76954305E-16 -2.02450096E-04 -2.18499268E-04  3.72640904E-03
  2.32006024E-04 -9.59631319E-05  3.62568916E-05  2.15180155E-17 -3.08118528E-05
  2.77043854E-02 -4.59905348E-03 -8.07221498E-04 -4.18364968E-03 -2.13628194E-16
 -4.82780265E-03 -2.20028361E-04 -1.75992179E-04  3.56701723E-05  3.37626567E-16
 -5.64774537E-03 -3.18643094E-04 -1.64128297E-04  3.70741182E-05 -2.67587760E-16
  2.77043846E-02 -4.59905336E-03  8.07221476E-04  4.18364957E-03 -4.70098638E-16
 -4.82780257E-03 -2.20028356E-04  1.75992176E-04 -3.56701716E-05  1.16012649E-15
 -9.77421157E-05  3.06972266E-05 -9.77421132E-05  6.99855229E-01  3.08653729E-02
  6.46614099E-04 -6.68733305E-04 -5.12940283E-16 -9.95577812E-03 -7.39818512E-03
  2.87786974E-03 -3.48535657E-03  3.35431100E-18  2.02643968E-04 -6.43309988E-03
  2.18634244E-04  6.99855247E-01  3.08653737E-02 -6.46614117E-04  6.68733322E-04
  1.53334974E-16 -6.43310005E-03 -9.95577839E-03 -7.39818532E-03 -2.87786982E-03
  3.48535667E-03  6.47381122E-17  2.02643973E-04  2.18634249E-04 -5.64774547E-03
 -3.18643100E-04  1.64128300E-04 -3.70741192E-05 -1.76143969E-16  3.06972275E-05
  7.37939540E-03 -1.91318922E-03  5.00507264E-03 -1.77474104E-04  1.17268744E-15
  6.08470600E-01  2.91382218E-02 -1.60739863E-04 -2.37531477E-03  8.10651991E-16
 -3.46207652E-01 -2.01190049E-02 -9.33146238E-04 -3.72575557E-03  8.85238327E-16
  7.37939545E-03 -1.91318923E-03 -5.00507264E-03  1.77474098E-04 -2.32445997E-16
  6.08470601E-01  2.91382219E-02  1.60739863E-04  2.37531477E-03 -1.71299419E-16
 -5.61332923E-03  3.20178541E-03 -5.61332925E-03  1.12478303E-03  4.79971060E-05
  1.44149179E-04 -7.20610930E-05  5.30231503E-16 -5.41815372E-04 -1.01920064E-04
 -2.40173174E-05 -4.37239457E-05 -1.00581154E-15  1.53229263E-04 -2.72746623E-05
 -6.79772579E-06  1.12478303E-03  4.79971056E-05 -1.44149179E-04  7.20610929E-05
  7.62245294E-16 -2.72746621E-05 -5.41815370E-04 -1.01920063E-04  2.40173173E-05
  4.37239455E-05  1.05318983E-16  1.53229263E-04 -6.79772577E-06 -3.46207652E-01
 -2.01190050E-02  9.33146240E-04  3.72575557E-03  4.03624681E-16  3.20178542E-03
  2.63832841E-02 -7.35881528E-03  2.16678522E-03  2.81216790E-03 -1.44714422E-16
  6.22334646E-01  2.96822427E-02  3.68604439E-05 -2.37695300E-03  9.99261554E-17
 -3.19733958E-01 -1.92144260E-02 -9.68767045E-04 -3.88999425E-03  1.05867264E-16
 -2.63832841E-02  7.35881528E-03  2.16678521E-03  2.81216790E-03 -3.13169177E-16
 -6.22334645E-01 -2.96822426E-02  3.68604442E-05 -2.37695299E-03 -1.05954739E-16
 -5.72592140E-03  3.04585517E-03  5.72592139E-03 -3.45861737E-03 -2.46890047E-04
 -4.39490751E-05  5.14127378E-05  1.72794949E-16  9.81715229E-04  1.67502781E-04
  2.38940869E-05  9.55594711E-05 -4.98997034E-17 -1.49840861E-04  8.44753901E-05
  1.27339025E-05  3.45861738E-03  2.46890047E-04 -4.39490754E-05  5.14127380E-05
  1.08797449E-17 -8.44753901E-05 -9.81715230E-04 -1.67502781E-04  2.38940869E-05
  9.55594712E-05 -1.62864976E-17  1.49840862E-04 -1.27339025E-05  3.19733957E-01
  1.92144260E-02 -9.68767043E-04 -3.88999425E-03  6.97710806E-17 -3.04585516E-03
 -8.06138111E-03  2.34767339E-03  4.57147810E-03 -1.93189462E-03 -3.01070632E-17
  3.21041955E-01  8.45999223E-03  9.13772765E-04  3.52676252E-03 -1.77519004E-17
  6.23022289E-01  2.41023375E-02  1.45921952E-04 -1.68947510E-03 -3.19482041E-16
  8.06138111E-03 -2.34767338E-03  4.57147810E-03 -1.93189462E-03  5.34021162E-16
 -3.21041955E-01 -8.45999223E-03  9.13772765E-04  3.52676252E-03  1.76806441E-16
 -2.75696393E-03 -5.54896044E-03  2.75696393E-03  1.63748422E-03  1.16755729E-04
 -4.42638816E-05 -1.52384083E-05  2.35105693E-16  1.11743522E-04 -2.11030220E-05
  3.11048490E-05 -7.30338012E-06 -7.32734819E-17 -5.38577403E-05 -6.39126649E-05
  8.27703101E-06 -1.63748422E-03 -1.16755729E-04 -4.42638816E-05 -1.52384083E-05
  2.20265555E-16  6.39126649E-05 -1.11743522E-04  2.11030221E-05  3.11048490E-05
 -7.30338013E-06  1.44291110E-16  5.38577403E-05 -8.27703101E-06 -6.23022289E-01
 -2.41023375E-02  1.45921952E-04 -1.68947510E-03  2.77836738E-17  5.54896045E-03
  2.63043757E-02 -6.89733617E-03 -7.46788559E-04  3.12583936E-03  1.91994223E-16
  3.46689839E-01  9.64283092E-03  6.39722470E-04  3.49762104E-03 -7.34345304E-16
  6.08754988E-01  2.30952821E-02 -2.84921296E-04 -1.88560693E-03  1.18984891E-16
  2.63043757E-02 -6.89733617E-03  7.46788560E-04 -3.12583936E-03 -1.39251975E-16
  3.46689839E-01  9.64283092E-03 -6.39722470E-04 -3.49762103E-03 -2.76351641E-16
 -3.17091255E-03 -5.57935383E-03 -3.17091255E-03  6.36165049E-03  2.87977765E-04
 -2.59335956E-05 -1.42953648E-04 -7.50670879E-16 -1.14337863E-03 -1.93857636E-04
  4.41569342E-06 -1.29738425E-04 -4.31516474E-16  6.00542458E-05 -1.63712939E-04
 -1.33644597E-05  6.36165049E-03  2.87977765E-04  2.59335956E-05  1.42953648E-04
  7.29975620E-16 -1.63712939E-04 -1.14337863E-03 -1.93857636E-04 -4.41569342E-06
  1.29738425E-04  8.91134916E-16  6.00542458E-05 -1.33644597E-05  6.08754988E-01
  2.30952821E-02  2.84921296E-04  1.88560693E-03  2.78334201E-16 -5.57935382E-03
 -2.40467638E-04 -1.30170109E-04  4.42334248E-05 -3.27350232E-05 -3.17877373E-17
 -9.08166275E-04  1.72143050E-05  1.03603966E-05  1.04337365E-04  3.60550935E-17
  3.09528789E-04  1.51819090E-06 -2.02519246E-06  7.77320305E-05 -1.11752738E-16