Mo4OCl4 restricted single point                                         
SP        RB3LYP                                                      Gen                 
Number of atoms                            I                6
Info1-9                                    I   N=           9
          27          27           0           0           0         111
           1          18        -502
Charge                                     I               -2
Multiplicity                               I                1
Number of electrons                        I               52
Number of alpha electrons                  I               26
Number of beta electrons                   I               26
Number of basis functions                  I               43
Number of independent functions            I               43
Number of point charges in /Mol/           I                0
Number of translation vectors              I                0
Atomic numbers                             I   N=           6
          42           8          17          17          17          17
Nuclear charges                            R   N=           6
  1.40000000E+01  8.00000000E+00  7.00000000E+00  7.00000000E+00  7.00000000E+00
  7.00000000E+00
Current cartesian coordinates              R   N=          18
  1.14420668E-05  5.58764522E-01 -6.77626358E-21  7.42378360E-06  3.75182345E+00
  0.00000000E+00  4.57356050E+00 -7.86520190E-01  4.44089210E-16  7.42378360E-06
 -7.86510731E-01  4.57358245E+00 -4.57360711E+00 -7.86499377E-01  4.44089210E-16
  7.42378360E-06 -7.86510731E-01 -4.57358245E+00
Force Field                                I                0
Int Atom Types                             I   N=           6
           0           0           0           0           0           0
MM charges                                 R   N=           6
  0.00000000E+00  0.00000000E+00  0.00000000E+00  0.00000000E+00  0.00000000E+00
  0.00000000E+00
Integer atomic weights                     I   N=           6
          98          16          35          35          35          35
Real atomic weights                        R   N=           6
  9.79055000E+01  1.59949146E+01  3.49688527E+01  3.49688527E+01  3.49688527E+01
  3.49688527E+01
Atom fragment info                         I   N=           6
           0           0           0           0           0           0
Atom residue num                           I   N=           6
           0           0           0           0           0           0
Nuclear spins                              I   N=           6
           0           0           3           3           3           3
Nuclear ZEff                               R   N=           6
 -2.06640000E+02 -5.60000000E+00 -2.04000000E+02 -2.04000000E+02 -2.04000000E+02
 -2.04000000E+02
Nuclear QMom                               R   N=           6
  0.00000000E+00  0.00000000E+00 -8.16500000E+00 -8.16500000E+00 -8.16500000E+00
 -8.16500000E+00
Nuclear GFac                               R   N=           6
  0.00000000E+00  0.00000000E+00  8.21874000E-01  8.21874000E-01  8.21874000E-01
  8.21874000E-01
MicOpt                                     I   N=           6
          -1          -1          -1          -1          -1          -1
Number of contracted shells                I               17
Number of primitive shells                 I               52
Pure/Cartesian d shells                    I                0
Pure/Cartesian f shells                    I                0
Highest angular momentum                   I                2
Largest degree of contraction              I                6
Shell types                                I   N=          17
           0           0           1           1          -2           0
          -1          -1          -2           0           1           0
           1           0           1           0           1
Number of primitives per shell             I   N=          17
           4           3           3           3           4           6
           3           1           1           3           3           3
           3           3           3           3           3
Shell to atom map                          I   N=          17
           1           1           1           1           1           2
           2           2           2           3           3           4
           4           5           5           6           6
Primitive exponents                        R   N=          52
  1.30900000E+00  4.50000000E-01  1.68100000E-01  4.23000000E-02  2.36100000E+00
  1.30900000E+00  4.50000000E-01  4.89500000E+00  1.04400000E+00  3.87700000E-01
  4.99500000E-01  7.80000000E-02  2.47000000E-02  2.99300000E+00  1.06300000E+00
  3.72100000E-01  1.17800000E-01  5.48467166E+03  8.25234946E+02  1.88046958E+02
  5.29645000E+01  1.68975704E+01  5.79963534E+00  1.55396162E+01  3.59993359E+00
  1.01376175E+00  2.70005823E-01  8.00000000E-01  2.23100000E+00  4.72000000E-01
  1.63100000E-01  6.29600000E+00  6.33300000E-01  1.81900000E-01  2.23100000E+00
  4.72000000E-01  1.63100000E-01  6.29600000E+00  6.33300000E-01  1.81900000E-01
  2.23100000E+00  4.72000000E-01  1.63100000E-01  6.29600000E+00  6.33300000E-01
  1.81900000E-01  2.23100000E+00  4.72000000E-01  1.63100000E-01  6.29600000E+00
  6.33300000E-01  1.81900000E-01
Contraction coefficients                   R   N=          52
 -4.22489639E-02 -2.33027840E-01  3.80051732E-01  8.21669130E-01 -9.12176195E-01
  1.14774524E+00  6.09711030E-01 -9.08257996E-02  7.04289897E-01  3.97317898E-01
 -5.09638017E-02  4.88377416E-01  6.15765721E-01  4.52679996E-02  4.29771897E-01
  4.97632896E-01  2.65848998E-01  1.83107443E-03  1.39501722E-02  6.84450781E-02
  2.32714336E-01  4.70192898E-01  3.58520853E-01 -1.10777550E-01 -1.48026263E-01
  1.13076702E+00  1.00000000E+00  1.00000000E+00 -2.95891792E-01  7.57312579E-01
  4.35099788E-01 -3.48649982E-02  5.56254871E-01  5.56587871E-01 -2.95891792E-01
  7.57312579E-01  4.35099788E-01 -3.48649982E-02  5.56254871E-01  5.56587871E-01
 -2.95891792E-01  7.57312579E-01  4.35099788E-01 -3.48649982E-02  5.56254871E-01
  5.56587871E-01 -2.95891792E-01  7.57312579E-01  4.35099788E-01 -3.48649982E-02
  5.56254871E-01  5.56587871E-01
P(S=P) Contraction coefficients            R   N=          52
  0.00000000E+00  0.00000000E+00  0.00000000E+00  0.00000000E+00  0.00000000E+00
  0.00000000E+00  0.00000000E+00  0.00000000E+00  0.00000000E+00  0.00000000E+00
  0.00000000E+00  0.00000000E+00  0.00000000E+00  0.00000000E+00  0.00000000E+00
  0.00000000E+00  0.00000000E+00  0.00000000E+00  0.00000000E+00  0.00000000E+00
  0.00000000E+00  0.00000000E+00  0.00000000E+00  7.08742682E-02  3.39752839E-01
  7.27158577E-01  1.00000000E+00  0.00000000E+00  0.00000000E+00  0.00000000E+00
  0.00000000E+00  0.00000000E+00  0.00000000E+00  0.00000000E+00  0.00000000E+00
  0.00000000E+00  0.00000000E+00  0.00000000E+00  0.00000000E+00  0.00000000E+00
  0.00000000E+00  0.00000000E+00  0.00000000E+00  0.00000000E+00  0.00000000E+00
  0.00000000E+00  0.00000000E+00  0.00000000E+00  0.00000000E+00  0.00000000E+00
  0.00000000E+00  0.00000000E+00
Coordinates of each shell                  R   N=          51
  1.14420668E-05  5.58764522E-01  3.15117338E-21  1.14420668E-05  5.58764522E-01
  3.15117338E-21  1.14420668E-05  5.58764522E-01  3.15117338E-21  1.14420668E-05
  5.58764522E-01  3.15117338E-21  1.14420668E-05  5.58764522E-01  3.15117338E-21
  7.42378360E-06  3.75182345E+00  2.50112418E-20  7.42378360E-06  3.75182345E+00
  2.50112418E-20  7.42378360E-06  3.75182345E+00  2.50112418E-20  7.42378360E-06
  3.75182345E+00  2.50112418E-20  4.57356050E+00 -7.86520190E-01 -2.53888938E-16
  4.57356050E+00 -7.86520190E-01 -2.53888938E-16  7.42378360E-06 -7.86510731E-01
  4.57358245E+00  7.42378360E-06 -7.86510731E-01  4.57358245E+00 -4.57360711E+00
 -7.86499377E-01  2.53880867E-16 -4.57360711E+00 -7.86499377E-01  2.53880867E-16
  7.42378360E-06 -7.86510731E-01 -4.57358245E+00  7.42378360E-06 -7.86510731E-01
 -4.57358245E+00
Constraint Structure                       R   N=          18
  1.14420668E-05  5.58764522E-01  3.15117338E-21  7.42378360E-06  3.75182345E+00
  2.50112418E-20  4.57356050E+00 -7.86520190E-01 -2.53888938E-16  7.42378360E-06
 -7.86510731E-01  4.57358245E+00 -4.57360711E+00 -7.86499377E-01  2.53880867E-16
  7.42378360E-06 -7.86510731E-01 -4.57358245E+00
Num ILSW                                   I              100
ILSW                                       I   N=         100
           0           0           0           0           2           0
           0           0           0           0         402          -1
           0           0           0           0           0           0
           0           0           0           0           0           0
           1           0           0           0           0           0
           0           0      100000           0          -1           0
           0           0           0           0           0           0
           0           0           0           1           0           0
           0           0           1           0           0           0
           0           0           4          40           0           0
           0           0           5           0           0           0
           0           0           0           0           0           0
           0           0           0           0           0           0
           0           0           0           0           0           0
           0           0           0           0           0           0
           0           0           0           0           0           0
           0           0           0           0
Num RLSW                                   I               40
RLSW                                       R   N=          40
  8.00000000E-01  7.20000000E-01  1.00000000E+00  8.10000000E-01  2.00000000E-01
  0.00000000E+00  0.00000000E+00  1.00000000E+00  0.00000000E+00  0.00000000E+00
  0.00000000E+00  0.00000000E+00  1.00000000E+00  0.00000000E+00  0.00000000E+00
  0.00000000E+00  0.00000000E+00  1.00000000E+00  0.00000000E+00  0.00000000E+00
  0.00000000E+00  0.00000000E+00  1.00000000E+00  0.00000000E+00  0.00000000E+00
  0.00000000E+00  0.00000000E+00  1.00000000E+00  0.00000000E+00  0.00000000E+00
  0.00000000E+00  0.00000000E+00  0.00000000E+00  0.00000000E+00  0.00000000E+00
  0.00000000E+00  0.00000000E+00  0.00000000E+00  1.00000000E+00  1.00000000E+00
ECP-MxAtEC                                 I           250000
ECP-MaxLECP                                I               10
ECP-MaxAtL                                 I          2250000
ECP-MxTECP                                 I         11250000
ECP-LenNCZ                                 I               33
ECP-KFirst                                 I   N=          60
           1           0          18          18          18          18
           6           0          23          23          23          23
           9           0          28          28          28          28
          13           0           0           0           0           0
           0           0           0           0           0           0
           0           0           0           0           0           0
           0           0           0           0           0           0
           0           0           0           0           0           0
           0           0           0           0           0           0
           0           0           0           0           0           0
ECP-KLast                                  I   N=          60
           5           0          22          22          22          22
           8           0          27          27          27          27
          12           0          33          33          33          33
          17           0           0           0           0           0
           0           0           0           0           0           0
           0           0           0           0           0           0
           0           0           0           0           0           0
           0           0           0           0           0           0
           0           0           0           0           0           0
           0           0           0           0           0           0
ECP-LMax                                   I   N=           6
           3           0           2           2           2           2
ECP-LPSkip                                 I   N=           6
           0           1           0           0           0           0
ECP-RNFroz                                 R   N=           6
  2.80000000E+01  0.00000000E+00  1.00000000E+01  1.00000000E+01  1.00000000E+01
  1.00000000E+01
ECP-NLP                                    I   N=          33
           0           1           2           2           2           0
           1           2           0           1           2           2
           0           1           2           2           2           1
           2           2           2           2           0           1
           2           2           2           0           1           2
           2           2           2
ECP-CLP1                                   R   N=          33
 -4.69492000E-02 -2.02080084E+01 -1.06211630E+02 -4.18107368E+01 -4.20541030E+00
  2.80637170E+00  4.45162012E+01  8.27785227E+01  4.94208760E+00  2.58604976E+01
  1.32470874E+02  5.73149794E+01  3.00545910E+00  2.63637851E+01  1.83384920E+02
  9.84453068E+01  2.24901377E+01 -1.00000000E+01  6.62729170E+01 -2.89685950E+01
 -1.28663370E+01 -1.71021700E+00  3.00000000E+00  1.28528510E+01  2.75672398E+02
  1.15677712E+02  3.50606090E+01  5.00000000E+00  7.47948600E+00  6.13032000E+02
  2.80800685E+02  1.07878824E+02  1.53439560E+01
ECP-CLP2                                   R   N=          33
  0.00000000E+00  0.00000000E+00  0.00000000E+00  0.00000000E+00  0.00000000E+00
  0.00000000E+00  0.00000000E+00  0.00000000E+00  0.00000000E+00  0.00000000E+00
  0.00000000E+00  0.00000000E+00  0.00000000E+00  0.00000000E+00  0.00000000E+00
  0.00000000E+00  0.00000000E+00  0.00000000E+00  0.00000000E+00  0.00000000E+00
  0.00000000E+00  0.00000000E+00  0.00000000E+00  0.00000000E+00  0.00000000E+00
  0.00000000E+00  0.00000000E+00  0.00000000E+00  0.00000000E+00  0.00000000E+00
  0.00000000E+00  0.00000000E+00  0.00000000E+00
ECP-ZLP                                    R   N=          33
  5.37966781E+02  1.47898294E+02  4.57358898E+01  1.32911467E+01  4.70599610E+00
  1.10299176E+02  2.32014645E+01  5.35301310E+00  6.32901397E+01  2.33315302E+01
  2.46759423E+01  4.64930400E+00  1.04483998E+02  6.62307245E+01  3.91283176E+01
  1.31164437E+01  3.62802630E+00  9.48130000E+01  1.65644000E+02  3.08317000E+01
  1.05841000E+01  3.77040000E+00  1.28839100E+02  1.20378600E+02  6.35622000E+01
  1.80695000E+01  3.81420000E+00  2.16526300E+02  4.65723000E+01  1.47468500E+02
  4.89869000E+01  1.32096000E+01  3.18310000E+00
MxBond                                     I                5
NBond                                      I   N=           6
           5           1           1           1           1           1
IBond                                      I   N=          30
           2           3           4           5           6           1
           0           0           0           0           1           0
           0           0           0           1           0           0
           0           0           1           0           0           0
           0           1           0           0           0           0
RBond                                      R   N=          30
  2.00000000E+00  1.00000000E+00  1.00000000E+00  1.00000000E+00  1.00000000E+00
  2.00000000E+00  0.00000000E+00  0.00000000E+00  0.00000000E+00  0.00000000E+00
  1.00000000E+00  0.00000000E+00  0.00000000E+00  0.00000000E+00  0.00000000E+00
  1.00000000E+00  0.00000000E+00  0.00000000E+00  0.00000000E+00  0.00000000E+00
  1.00000000E+00  0.00000000E+00  0.00000000E+00  0.00000000E+00  0.00000000E+00
  1.00000000E+00  0.00000000E+00  0.00000000E+00  0.00000000E+00  0.00000000E+00
Virial Ratio                               R      2.677884420516098E+00
SCF Energy                                 R     -2.027136225752580E+02
Total Energy                               R     -2.027136225752580E+02
RMS Density                                R      4.918844318825575E-09
External E-field                           R   N=          35
  0.00000000E+00  0.00000000E+00  0.00000000E+00  0.00000000E+00  0.00000000E+00
  0.00000000E+00  0.00000000E+00  0.00000000E+00  0.00000000E+00  0.00000000E+00
  0.00000000E+00  0.00000000E+00  0.00000000E+00  0.00000000E+00  0.00000000E+00
  0.00000000E+00  0.00000000E+00  0.00000000E+00  0.00000000E+00  0.00000000E+00
  0.00000000E+00  0.00000000E+00  0.00000000E+00  0.00000000E+00  0.00000000E+00
  0.00000000E+00  0.00000000E+00  0.00000000E+00  0.00000000E+00  0.00000000E+00
  0.00000000E+00  0.00000000E+00  0.00000000E+00  0.00000000E+00  0.00000000E+00
IOpCl                                      I                0
IROHF                                      I                0
Alpha Orbital Energies                     R   N=          43
 -1.88692058E+01 -2.22101221E+00 -1.28647538E+00 -1.22271236E+00 -1.22271235E+00
 -6.10591417E-01 -4.13776705E-01 -4.02334908E-01 -4.02334842E-01 -3.99878352E-01
 -9.00722966E-02 -7.58290615E-02 -7.58290463E-02 -9.06302226E-03 -5.38701607E-03
  5.06672177E-04  1.51822386E-02  1.51822662E-02  2.86329505E-02  4.79321307E-02
  4.79321840E-02  5.70099981E-02  6.03049136E-02  6.03049236E-02  7.84843868E-02
  1.33885842E-01  2.48191193E-01  2.48191235E-01  2.90400811E-01  2.93224983E-01
  3.61016759E-01  4.43890105E-01  4.58532734E-01  4.58532749E-01  1.24955467E+00
  1.24955468E+00  1.26151220E+00  1.56996337E+00  2.07038619E+00  2.07091041E+00
  2.08446176E+00  2.08446176E+00  2.18477313E+00
Alpha MO coefficients                      R   N=        1849
  2.22427101E-03  7.56887366E-04 -8.59923283E-11  1.10994619E-03  0.00000000E+00
 -1.04521754E-09  1.56273937E-03  0.00000000E+00 -2.09597301E-04  0.00000000E+00
  0.00000000E+00 -3.63033292E-04 -2.48042317E-09  9.95024772E-01  2.71815624E-02
  2.58830085E-09 -8.82456175E-04  0.00000000E+00 -1.04119456E-02 -1.80145124E-09
  1.33232874E-03  0.00000000E+00  1.15408186E-04  0.00000000E+00  0.00000000E+00
  1.99892841E-04  2.87803396E-10 -2.59706437E-04  1.08435000E-04 -1.94990122E-04
  0.00000000E+00 -2.59705293E-04  1.39350766E-10 -1.94989286E-04  1.08435894E-04
 -2.59704131E-04 -1.08436844E-04 -1.94988314E-04  0.00000000E+00 -2.59705293E-04
  1.39350766E-10 -1.94989286E-04 -1.08435894E-04 -6.11363685E-03  1.00138889E+00
  4.68258200E-07  1.18617639E-02  0.00000000E+00 -2.98780770E-08  2.57795364E-03
  0.00000000E+00 -8.22722918E-03  0.00000000E+00  0.00000000E+00 -1.42499828E-02
 -5.55161531E-08 -5.93097519E-03  1.35615561E-02  1.68182662E-08 -1.20657008E-02
  0.00000000E+00 -2.37676781E-03  4.59643553E-11  4.11614233E-03  0.00000000E+00
 -2.65207818E-04  0.00000000E+00  0.00000000E+00 -4.59353266E-04 -1.73327697E-09
  3.77675864E-03 -2.39810644E-03  1.06225750E-03  0.00000000E+00  3.77666747E-03
  8.86348460E-10  1.06221563E-03 -2.39808365E-03  3.77657125E-03  2.39806011E-03
  1.06217048E-03  0.00000000E+00  3.77666747E-03  8.86348460E-10  1.06221563E-03
  2.39808365E-03  1.53674764E-03 -2.76405642E-02 -2.91253026E-06  9.68904661E-01
  0.00000000E+00  2.13831699E-08  1.09733697E-03  0.00000000E+00 -8.42198166E-03
  0.00000000E+00  0.00000000E+00 -1.45872959E-02  2.68292272E-07 -3.51943502E-02
  7.60696059E-02  7.72539522E-08 -5.72811846E-02  0.00000000E+00  3.89473541E-02
 -3.82567865E-08 -6.47844270E-03  0.00000000E+00 -4.88235020E-03  0.00000000E+00
  0.00000000E+00 -8.45647855E-03 -1.28271681E-08 -2.78264659E-03  2.62722298E-03
  1.37842311E-03  0.00000000E+00 -2.78243558E-03  2.31810825E-10  1.37841840E-03
  2.62705790E-03 -2.78220882E-03 -2.62687917E-03  1.37841253E-03  0.00000000E+00
 -2.78243558E-03  2.31810825E-10  1.37841840E-03 -2.62705790E-03  0.00000000E+00
  0.00000000E+00  0.00000000E+00  0.00000000E+00  9.96104214E-01  0.00000000E+00
  0.00000000E+00 -7.26621294E-04  0.00000000E+00  2.75140970E-07  4.91465210E-04
  0.00000000E+00  0.00000000E+00  0.00000000E+00  0.00000000E+00  0.00000000E+00
  0.00000000E+00  1.14090395E-02  0.00000000E+00  0.00000000E+00  0.00000000E+00
  4.22193139E-03  0.00000000E+00  9.52317908E-10 -2.97752405E-03  0.00000000E+00
  0.00000000E+00  0.00000000E+00  0.00000000E+00  0.00000000E+00  1.66732358E-03
  1.33702953E-02 -2.05787761E-09  3.22512815E-03 -9.51589727E-03  0.00000000E+00
  0.00000000E+00  0.00000000E+00  1.66722451E-03 -1.33702953E-02  2.05787761E-09
 -3.22512815E-03 -9.51589727E-03  2.22235034E-08 -7.24098106E-07  9.96104221E-01
  3.00466227E-06  0.00000000E+00 -7.26619555E-04 -7.12342736E-10  0.00000000E+00
 -2.57671376E-07  0.00000000E+00  0.00000000E+00  4.46223376E-07  4.91469022E-04
 -5.81560568E-08  1.11051889E-07  1.14090404E-02 -7.67360829E-08  0.00000000E+00
  1.53854570E-07  4.22193091E-03 -3.84956167E-08  0.00000000E+00 -9.14721502E-09
  0.00000000E+00  0.00000000E+00 -1.86421680E-08 -2.97752410E-03  1.33707928E-02
 -9.51619128E-03  3.22526886E-03  0.00000000E+00 -9.36682952E-09  1.66727676E-03
  9.27516076E-09  1.05109419E-08 -1.33697599E-02 -9.51558267E-03 -3.22497296E-03
  0.00000000E+00 -9.36682952E-09  1.66727676E-03  9.27516076E-09 -1.05109419E-08
  3.22685968E-02 -1.35574212E-01  2.76501859E-07 -2.79749635E-01  0.00000000E+00
 -3.72411543E-09  1.45140359E-02  0.00000000E+00 -6.63399586E-02  0.00000000E+00
  0.00000000E+00 -1.14904180E-01 -4.12107723E-07 -2.26935410E-01  5.11786938E-01
  1.70391954E-07 -5.76575581E-02  0.00000000E+00  5.16265799E-01  2.27013428E-07
 -4.60930611E-02  0.00000000E+00 -9.64157634E-03  0.00000000E+00  0.00000000E+00
 -1.66996995E-02 -7.18272961E-08  7.72706856E-03 -3.84129139E-03  2.18510841E-03
  0.00000000E+00  7.72674781E-03  1.53041740E-09  2.18505365E-03 -3.84127085E-03
  7.72640335E-03  3.84124930E-03  2.18499306E-03  0.00000000E+00  7.72674781E-03
  1.53041740E-09  2.18505365E-03  3.84127085E-03  7.30591317E-02 -7.20048908E-02
 -1.43312469E-05  3.92858585E-02  0.00000000E+00  5.07702200E-06 -1.55790704E-02
  0.00000000E+00  2.21074372E-02  0.00000000E+00  0.00000000E+00  3.82906865E-02
 -7.33372425E-06  3.96913894E-03 -7.43647017E-03 -7.69983037E-07  1.02058119E-03
  0.00000000E+00 -1.21202694E-02  1.51516789E-07  3.39455007E-03  0.00000000E+00
  1.77575515E-04  0.00000000E+00  0.00000000E+00  3.07569742E-04  1.35730460E-08
  4.70746090E-01 -2.89385588E-02  7.04452851E-03  0.00000000E+00  4.70643412E-01
  1.07528611E-06  7.04276486E-03 -2.89324186E-02  4.70535625E-01  2.89259906E-02
  7.04089762E-03  0.00000000E+00  4.70643412E-01  1.07528611E-06  7.04276486E-03
  2.89324186E-02  0.00000000E+00  0.00000000E+00  0.00000000E+00  0.00000000E+00
 -8.02172300E-02  0.00000000E+00  0.00000000E+00  3.60582103E-02  0.00000000E+00
  1.10794160E-08 -4.13713629E-02  0.00000000E+00  0.00000000E+00  0.00000000E+00
  0.00000000E+00  0.00000000E+00  0.00000000E+00 -3.67476854E-03  0.00000000E+00
  0.00000000E+00  0.00000000E+00  4.36046059E-04  0.00000000E+00 -6.68728328E-10
  4.52055269E-05  0.00000000E+00  0.00000000E+00  0.00000000E+00  0.00000000E+00
  0.00000000E+00  5.34619277E-03  6.88751540E-01  3.06032522E-07  9.02426766E-03
 -3.37126274E-02  0.00000000E+00  0.00000000E+00  0.00000000E+00  5.34564828E-03
 -6.88751540E-01 -3.06032522E-07 -9.02426766E-03 -3.37126274E-02 -1.11430434E-05
  9.46303483E-06 -8.02171228E-02 -4.70276666E-06  0.00000000E+00  3.60582274E-02
  2.31389361E-06  0.00000000E+00 -5.23359694E-05  0.00000000E+00  0.00000000E+00
  2.29300055E-05 -4.13712849E-02 -4.89410089E-07  8.89782850E-07 -3.67475440E-03
 -2.72059347E-07  0.00000000E+00  1.59024894E-06  4.36041682E-04 -4.57952569E-07
  0.00000000E+00 -8.63502573E-08  0.00000000E+00  0.00000000E+00 -2.26838688E-08
  4.52052271E-05  6.88987946E-01 -3.37226052E-02  9.02813435E-03  0.00000000E+00
 -3.81372430E-04  5.34592474E-03 -5.57650351E-06  1.74294097E-05 -6.88514851E-01
 -3.37025478E-02 -9.02036002E-03  0.00000000E+00 -3.81372430E-04  5.34592474E-03
 -5.57650351E-06 -1.74294097E-05  1.95477960E-07 -1.55582413E-07  4.83424166E-05
  6.72492222E-08  0.00000000E+00 -2.31137211E-05 -3.71433724E-08  0.00000000E+00
 -7.63244647E-02  0.00000000E+00  0.00000000E+00  4.40660804E-02  2.48738810E-05
  7.75069579E-09 -1.38604165E-08  2.07741053E-06  6.33838813E-09  0.00000000E+00
 -2.57590974E-08 -1.81211340E-07  7.71894170E-09  0.00000000E+00 -1.00466845E-04
  0.00000000E+00  0.00000000E+00  5.80060447E-05 -2.22005077E-08  4.90933038E-01
 -2.08255988E-02  7.13051048E-03  0.00000000E+00 -4.91363844E-01 -3.51400012E-06
 -7.13570098E-03  2.08457700E-02  4.91799787E-01  2.08661828E-02  7.14094079E-03
  0.00000000E+00 -4.91363844E-01 -3.51400012E-06 -7.13570098E-03 -2.08457700E-02
 -3.98396773E-02  1.13746985E-01 -1.22627563E-06  1.45299299E-01  0.00000000E+00
  3.64042735E-07  6.07706270E-02  0.00000000E+00  2.51429117E-01  0.00000000E+00
  0.00000000E+00  4.35487910E-01  4.31417244E-06 -3.69938853E-02  6.45511851E-02
  2.67337621E-06  5.51385383E-01  0.00000000E+00  2.31065071E-01  1.76677318E-06
  3.31841953E-01  0.00000000E+00  1.44605394E-02  0.00000000E+00  0.00000000E+00
  2.50463885E-02 -7.85077523E-08 -2.74396938E-02 -3.25533373E-02  4.97014990E-02
  0.00000000E+00 -2.74398071E-02 -1.22003835E-07  4.96981488E-02 -3.25534269E-02
 -2.74398984E-02  3.25534853E-02  4.96945744E-02  0.00000000E+00 -2.74398071E-02
 -1.22003835E-07  4.96981488E-02  3.25534269E-02  0.00000000E+00  0.00000000E+00
  0.00000000E+00  0.00000000E+00 -6.48441038E-02  0.00000000E+00  0.00000000E+00
  7.06259773E-02  0.00000000E+00 -1.39482963E-06  4.41904758E-01  0.00000000E+00
  0.00000000E+00  0.00000000E+00  0.00000000E+00  0.00000000E+00  0.00000000E+00
  5.24084658E-01  0.00000000E+00  0.00000000E+00  0.00000000E+00  3.46107827E-01
  0.00000000E+00  7.91140109E-08 -3.02821584E-02  0.00000000E+00  0.00000000E+00
  0.00000000E+00  0.00000000E+00  0.00000000E+00 -1.90227259E-02  2.33577876E-02
 -6.22751214E-07  6.91064705E-02  9.36889376E-02  0.00000000E+00  0.00000000E+00
  0.00000000E+00 -1.90193714E-02 -2.33577876E-02  6.22751214E-07 -6.91064705E-02
  9.36889376E-02  1.16706187E-07  2.47084684E-07 -6.48441471E-02 -2.24240881E-06
  0.00000000E+00  7.06259371E-02  3.88440453E-07  0.00000000E+00 -2.56862073E-07
  0.00000000E+00  0.00000000E+00 -4.90992155E-06  4.41904721E-01  2.83505178E-07
 -5.91224062E-07  5.24084725E-01 -3.21886043E-06  0.00000000E+00 -1.62958045E-06
  3.46107892E-01 -2.18410187E-06  0.00000000E+00 -1.26448711E-07  0.00000000E+00
  0.00000000E+00 -5.31838987E-08 -3.02821628E-02  2.33609765E-02  9.36966281E-02
  6.91075143E-02  0.00000000E+00  3.95778232E-07 -1.90210966E-02 -9.03886787E-08
  7.73472811E-07 -2.33544217E-02  9.36807686E-02 -6.91054332E-02  0.00000000E+00
  3.95778232E-07 -1.90210966E-02 -9.03886787E-08 -7.73472811E-07 -2.32354177E-01
  2.01850508E-01  1.06911332E-05 -1.41887871E-02  0.00000000E+00 -1.96093616E-06
  1.34609058E-02  0.00000000E+00 -3.83070557E-02  0.00000000E+00  0.00000000E+00
 -6.63419922E-02  4.78137930E-06 -9.88786380E-03  2.17072536E-02 -1.32369673E-05
  1.14931486E-01  0.00000000E+00  4.57302231E-02 -1.13191077E-05  8.15153105E-02
  0.00000000E+00  1.77186671E-03  0.00000000E+00  0.00000000E+00  3.06902777E-03
  6.78619187E-07  1.20702904E-01  4.18740889E-01 -9.80915306E-02  0.00000000E+00
  1.20698920E-01 -9.00425962E-06 -9.80852800E-02  4.18713518E-01  1.20691567E-01
 -4.18673165E-01 -9.80727265E-02  0.00000000E+00  1.20698920E-01 -9.00425962E-06
 -9.80852800E-02 -4.18713518E-01 -2.10958760E-06  1.72959031E-06  1.21128537E-05
 -1.39401413E-07  0.00000000E+00 -2.21331790E-06  1.91544594E-07  0.00000000E+00
  3.80982852E-01  0.00000000E+00  0.00000000E+00 -2.19961393E-01  6.33715091E-06
 -8.23492717E-08  1.87848497E-07 -1.20749400E-05  9.21221276E-07  0.00000000E+00
  3.61247439E-07 -1.08132078E-05  6.61691951E-07  0.00000000E+00  3.24462526E-03
  0.00000000E+00  0.00000000E+00 -1.87325559E-03  6.00121298E-07  9.15239776E-02
  3.63928896E-01 -1.75649404E-01  0.00000000E+00 -9.15158142E-02 -9.10526569E-06
  1.75631841E-01 -3.63883827E-01  9.15119024E-02 -3.63853835E-01 -1.75617036E-01
  0.00000000E+00 -9.15158142E-02 -9.10526569E-06  1.75631841E-01  3.63883827E-01
  0.00000000E+00  0.00000000E+00  0.00000000E+00  0.00000000E+00 -9.88645495E-06
  0.00000000E+00  0.00000000E+00  6.80349047E-06  0.00000000E+00  4.60762597E-01
 -6.97105526E-06  0.00000000E+00  0.00000000E+00  0.00000000E+00  0.00000000E+00
  0.00000000E+00  0.00000000E+00  1.12054378E-05  0.00000000E+00  0.00000000E+00
  0.00000000E+00  9.58220183E-06  0.00000000E+00  3.30733592E-03 -5.29731258E-07
  0.00000000E+00  0.00000000E+00  0.00000000E+00  0.00000000E+00  0.00000000E+00
  3.86472932E-01 -7.67740921E-06  3.86438599E-01  2.12371060E-06 -3.00801073E-05
  0.00000000E+00  0.00000000E+00  0.00000000E+00 -3.86403419E-01  7.67740921E-06
 -3.86438599E-01 -2.12371060E-06 -3.00801073E-05  0.00000000E+00  0.00000000E+00
  0.00000000E+00  0.00000000E+00  1.47343050E-01  0.00000000E+00  0.00000000E+00
 -7.19722063E-02  0.00000000E+00  3.30421914E-05  1.42113765E-01  0.00000000E+00
  0.00000000E+00  0.00000000E+00  0.00000000E+00  0.00000000E+00  0.00000000E+00
 -1.58255193E-01  0.00000000E+00  0.00000000E+00  0.00000000E+00 -1.43303662E-01
  0.00000000E+00  2.26300254E-07  7.26216071E-03  0.00000000E+00  0.00000000E+00
  0.00000000E+00  0.00000000E+00  0.00000000E+00 -2.81994480E-01  8.99483279E-02
  3.14768666E-05 -4.98859375E-02  5.76961523E-01  0.00000000E+00  0.00000000E+00
  0.00000000E+00 -2.82035417E-01 -8.99483279E-02 -3.14768666E-05  4.98859375E-02