trithiolane.g09                                                         
SP        RB3LYP                                                      6-31G(d)            
Number of atoms                            I                9
Info1-9                                    I   N=           9
          17          17           0           0           0         110
           1          18        -502
Charge                                     I                0
Multiplicity                               I                1
Number of electrons                        I               64
Number of alpha electrons                  I               32
Number of beta electrons                   I               32
Number of basis functions                  I               95
Number of independent functions            I               95
Number of point charges in /Mol/           I                0
Number of translation vectors              I                0
Atomic numbers                             I   N=           9
          16          16          16           6           6           1
           1           1           1
Nuclear charges                            R   N=           9
  1.60000000E+01  1.60000000E+01  1.60000000E+01  6.00000000E+00  6.00000000E+00
  1.00000000E+00  1.00000000E+00  1.00000000E+00  1.00000000E+00
Current cartesian coordinates              R   N=          27
 -3.24949747E+00 -1.51178091E-04 -1.70075352E-04  2.14289274E+00  1.88260187E+00
  6.11855527E-01  2.14285495E+00 -1.88262076E+00 -6.12044500E-01 -9.68749205E-01
  2.54988306E+00 -7.35670384E-01 -9.68503540E-01 -2.54959960E+00  7.36256199E-01
 -8.28871676E-01  2.77396678E+00 -2.78061862E+00 -1.64974981E+00  4.30060094E+00
  1.26063630E-01 -8.28115786E-01 -2.77279515E+00  2.78126113E+00 -1.64971202E+00
 -4.30069543E+00 -1.24514055E-01
Force Field                                I                0
Int Atom Types                             I   N=           9
           0           0           0           0           0           0
           0           0           0
MM charges                                 R   N=           9
  0.00000000E+00  0.00000000E+00  0.00000000E+00  0.00000000E+00  0.00000000E+00
  0.00000000E+00  0.00000000E+00  0.00000000E+00  0.00000000E+00
Integer atomic weights                     I   N=           9
          32          32          32          12          12           1
           1           1           1
Real atomic weights                        R   N=           9
  3.19720718E+01  3.19720718E+01  3.19720718E+01  1.20000000E+01  1.20000000E+01
  1.00782504E+00  1.00782504E+00  1.00782504E+00  1.00782504E+00
Atom fragment info                         I   N=           9
           0           0           0           0           0           0
           0           0           0
Atom residue num                           I   N=           9
           0           0           0           0           0           0
           0           0           0
Nuclear spins                              I   N=           9
           0           0           0           0           0           1
           1           1           1
Nuclear ZEff                               R   N=           9
 -1.36000000E+01 -1.36000000E+01 -1.36000000E+01 -3.60000000E+00 -3.60000000E+00
 -1.00000000E+00 -1.00000000E+00 -1.00000000E+00 -1.00000000E+00
Nuclear QMom                               R   N=           9
  0.00000000E+00  0.00000000E+00  0.00000000E+00  0.00000000E+00  0.00000000E+00
  0.00000000E+00  0.00000000E+00  0.00000000E+00  0.00000000E+00
Nuclear GFac                               R   N=           9
  0.00000000E+00  0.00000000E+00  0.00000000E+00  0.00000000E+00  0.00000000E+00
  2.79284600E+00  2.79284600E+00  2.79284600E+00  2.79284600E+00
MicOpt                                     I   N=           9
          -1          -1          -1          -1          -1          -1
          -1          -1          -1
Number of contracted shells                I               31
Number of primitive shells                 I               89
Pure/Cartesian d shells                    I                1
Pure/Cartesian f shells                    I                0
Highest angular momentum                   I                2
Largest degree of contraction              I                6
Shell types                                I   N=          31
           0          -1          -1          -1           2           0
          -1          -1          -1           2           0          -1
          -1          -1           2           0          -1          -1
           2           0          -1          -1           2           0
           0           0           0           0           0           0
           0
Number of primitives per shell             I   N=          31
           6           6           3           1           1           6
           6           3           1           1           6           6
           3           1           1           6           3           1
           1           6           3           1           1           3
           1           3           1           3           1           3
           1
Shell to atom map                          I   N=          31
           1           1           1           1           1           2
           2           2           2           2           3           3
           3           3           3           4           4           4
           4           5           5           5           5           6
           6           7           7           8           8           9
           9
Primitive exponents                        R   N=          89
  2.19171000E+04  3.30149000E+03  7.54146000E+02  2.12711000E+02  6.79896000E+01
  2.30515000E+01  4.23735000E+02  1.00710000E+02  3.21599000E+01  1.18079000E+01
  4.63110000E+00  1.87025000E+00  2.61584000E+00  9.22167000E-01  3.41287000E-01
  1.17167000E-01  6.50000000E-01  2.19171000E+04  3.30149000E+03  7.54146000E+02
  2.12711000E+02  6.79896000E+01  2.30515000E+01  4.23735000E+02  1.00710000E+02
  3.21599000E+01  1.18079000E+01  4.63110000E+00  1.87025000E+00  2.61584000E+00
  9.22167000E-01  3.41287000E-01  1.17167000E-01  6.50000000E-01  2.19171000E+04
  3.30149000E+03  7.54146000E+02  2.12711000E+02  6.79896000E+01  2.30515000E+01
  4.23735000E+02  1.00710000E+02  3.21599000E+01  1.18079000E+01  4.63110000E+00
  1.87025000E+00  2.61584000E+00  9.22167000E-01  3.41287000E-01  1.17167000E-01
  6.50000000E-01  3.04752488E+03  4.57369518E+02  1.03948685E+02  2.92101553E+01
  9.28666296E+00  3.16392696E+00  7.86827235E+00  1.88128854E+00  5.44249258E-01
  1.68714478E-01  8.00000000E-01  3.04752488E+03  4.57369518E+02  1.03948685E+02
  2.92101553E+01  9.28666296E+00  3.16392696E+00  7.86827235E+00  1.88128854E+00
  5.44249258E-01  1.68714478E-01  8.00000000E-01  1.87311370E+01  2.82539436E+00
  6.40121692E-01  1.61277759E-01  1.87311370E+01  2.82539436E+00  6.40121692E-01
  1.61277759E-01  1.87311370E+01  2.82539436E+00  6.40121692E-01  1.61277759E-01
  1.87311370E+01  2.82539436E+00  6.40121692E-01  1.61277759E-01
Contraction coefficients                   R   N=          89
  1.86924085E-03  1.42303065E-02  6.96962317E-02  2.38487108E-01  4.83307220E-01
  3.38074154E-01 -2.37677050E-03 -3.16930067E-02 -1.13317024E-01  5.60900118E-02
  5.92255124E-01  4.55006095E-01 -2.50373114E-01  6.69567631E-02  1.05450627E+00
  1.00000000E+00  1.00000000E+00  1.86924085E-03  1.42303065E-02  6.96962317E-02
  2.38487108E-01  4.83307220E-01  3.38074154E-01 -2.37677050E-03 -3.16930067E-02
 -1.13317024E-01  5.60900118E-02  5.92255124E-01  4.55006095E-01 -2.50373114E-01
  6.69567631E-02  1.05450627E+00  1.00000000E+00  1.00000000E+00  1.86924085E-03
  1.42303065E-02  6.96962317E-02  2.38487108E-01  4.83307220E-01  3.38074154E-01
 -2.37677050E-03 -3.16930067E-02 -1.13317024E-01  5.60900118E-02  5.92255124E-01
  4.55006095E-01 -2.50373114E-01  6.69567631E-02  1.05450627E+00  1.00000000E+00
  1.00000000E+00  1.83473713E-03  1.40373228E-02  6.88426223E-02  2.32184443E-01
  4.67941348E-01  3.62311985E-01 -1.19332420E-01 -1.60854152E-01  1.14345644E+00
  1.00000000E+00  1.00000000E+00  1.83473713E-03  1.40373228E-02  6.88426223E-02
  2.32184443E-01  4.67941348E-01  3.62311985E-01 -1.19332420E-01 -1.60854152E-01
  1.14345644E+00  1.00000000E+00  1.00000000E+00  3.34946043E-02  2.34726953E-01
  8.13757326E-01  1.00000000E+00  3.34946043E-02  2.34726953E-01  8.13757326E-01
  1.00000000E+00  3.34946043E-02  2.34726953E-01  8.13757326E-01  1.00000000E+00
  3.34946043E-02  2.34726953E-01  8.13757326E-01  1.00000000E+00
P(S=P) Contraction coefficients            R   N=          89
  0.00000000E+00  0.00000000E+00  0.00000000E+00  0.00000000E+00  0.00000000E+00
  0.00000000E+00  4.06100998E-03  3.06812999E-02  1.30451999E-01  3.27204999E-01
  4.52850998E-01  2.56041999E-01 -1.45104895E-02  3.10262776E-01  7.54482456E-01
  1.00000000E+00  0.00000000E+00  0.00000000E+00  0.00000000E+00  0.00000000E+00
  0.00000000E+00  0.00000000E+00  0.00000000E+00  4.06100998E-03  3.06812999E-02
  1.30451999E-01  3.27204999E-01  4.52850998E-01  2.56041999E-01 -1.45104895E-02
  3.10262776E-01  7.54482456E-01  1.00000000E+00  0.00000000E+00  0.00000000E+00
  0.00000000E+00  0.00000000E+00  0.00000000E+00  0.00000000E+00  0.00000000E+00
  4.06100998E-03  3.06812999E-02  1.30451999E-01  3.27204999E-01  4.52850998E-01
  2.56041999E-01 -1.45104895E-02  3.10262776E-01  7.54482456E-01  1.00000000E+00
  0.00000000E+00  0.00000000E+00  0.00000000E+00  0.00000000E+00  0.00000000E+00
  0.00000000E+00  0.00000000E+00  6.89990666E-02  3.16423961E-01  7.44308291E-01
  1.00000000E+00  0.00000000E+00  0.00000000E+00  0.00000000E+00  0.00000000E+00
  0.00000000E+00  0.00000000E+00  0.00000000E+00  6.89990666E-02  3.16423961E-01
  7.44308291E-01  1.00000000E+00  0.00000000E+00  0.00000000E+00  0.00000000E+00
  0.00000000E+00  0.00000000E+00  0.00000000E+00  0.00000000E+00  0.00000000E+00
  0.00000000E+00  0.00000000E+00  0.00000000E+00  0.00000000E+00  0.00000000E+00
  0.00000000E+00  0.00000000E+00  0.00000000E+00  0.00000000E+00
Coordinates of each shell                  R   N=          93
 -3.24949806E+00 -1.56707187E-04 -1.69484813E-04 -3.24949806E+00 -1.56707187E-04
 -1.69484813E-04 -3.24949806E+00 -1.56707187E-04 -1.69484813E-04 -3.24949806E+00
 -1.56707187E-04 -1.69484813E-04 -3.24949806E+00 -1.56707187E-04 -1.69484813E-04
  2.14288946E+00  1.88260404E+00  6.11856118E-01  2.14288946E+00  1.88260404E+00
  6.11856118E-01  2.14288946E+00  1.88260404E+00  6.11856118E-01  2.14288946E+00
  1.88260404E+00  6.11856118E-01  2.14288946E+00  1.88260404E+00  6.11856118E-01
  2.14285705E+00 -1.88261859E+00 -6.12043909E-01  2.14285705E+00 -1.88261859E+00
 -6.12043909E-01  2.14285705E+00 -1.88261859E+00 -6.12043909E-01  2.14285705E+00
 -1.88261859E+00 -6.12043909E-01  2.14285705E+00 -1.88261859E+00 -6.12043909E-01
 -9.68753439E-01  2.54988079E+00 -7.35669793E-01 -9.68753439E-01  2.54988079E+00
 -7.35669793E-01 -9.68753439E-01  2.54988079E+00 -7.35669793E-01 -9.68753439E-01
  2.54988079E+00 -7.35669793E-01 -9.68500488E-01 -2.54960187E+00  7.36256789E-01
 -9.68500488E-01 -2.54960187E+00  7.36256789E-01 -9.68500488E-01 -2.54960187E+00
  7.36256789E-01 -9.68500488E-01 -2.54960187E+00  7.36256789E-01 -8.28876231E-01
  2.77396471E+00 -2.78061803E+00 -8.28876231E-01  2.77396471E+00 -2.78061803E+00
 -1.64975655E+00  4.30059770E+00  1.26064221E-01 -1.64975655E+00  4.30059770E+00
  1.26064221E-01 -8.28112414E-01 -2.77279722E+00  2.78126172E+00 -8.28112414E-01
 -2.77279722E+00  2.78126172E+00 -1.64970646E+00 -4.30069867E+00 -1.24513464E-01
 -1.64970646E+00 -4.30069867E+00 -1.24513464E-01
Constraint Structure                       R   N=          27
 -3.24949806E+00 -1.56707187E-04 -1.69484813E-04  2.14288946E+00  1.88260404E+00
  6.11856118E-01  2.14285705E+00 -1.88261859E+00 -6.12043909E-01 -9.68753439E-01
  2.54988079E+00 -7.35669793E-01 -9.68500488E-01 -2.54960187E+00  7.36256789E-01
 -8.28876231E-01  2.77396471E+00 -2.78061803E+00 -1.64975655E+00  4.30059770E+00
  1.26064221E-01 -8.28112414E-01 -2.77279722E+00  2.78126172E+00 -1.64970646E+00
 -4.30069867E+00 -1.24513464E-01
Num ILSW                                   I              100
ILSW                                       I   N=         100
           0           1           0           0           2           0
           0           0           0           0         402          -1
           0           0           0           0           0           0
           0           0           2           0           0           0
           1           0           0           0           0           0
           0           0      100000           0          -1           0
           0           0           0           0           0           0
           0           0           0           1           0           0
           0           0           1           0           0           0
           0           0           4          40           0           0
           0           0           5           0           0           0
           0           0           0           0           0           0
           0           0           0           0           0           0
           0           0           0           0           0           0
           0           0           0           0           0           0
           0           0           0           0           0           0
           0           0           0           0
Num RLSW                                   I               40
RLSW                                       R   N=          40
  8.00000000E-01  7.20000000E-01  1.00000000E+00  8.10000000E-01  2.00000000E-01
  0.00000000E+00  0.00000000E+00  1.00000000E+00  0.00000000E+00  0.00000000E+00
  0.00000000E+00  0.00000000E+00  1.00000000E+00  0.00000000E+00  0.00000000E+00
  0.00000000E+00  0.00000000E+00  1.00000000E+00  0.00000000E+00  0.00000000E+00
  0.00000000E+00  0.00000000E+00  1.00000000E+00  0.00000000E+00  0.00000000E+00
  0.00000000E+00  0.00000000E+00  1.00000000E+00  0.00000000E+00  0.00000000E+00
  0.00000000E+00  0.00000000E+00  0.00000000E+00  0.00000000E+00  0.00000000E+00
  0.00000000E+00  0.00000000E+00  0.00000000E+00  1.00000000E+00  1.00000000E+00
MxBond                                     I                4
NBond                                      I   N=           9
           2           2           2           4           4           1
           1           1           1
IBond                                      I   N=          36
           4           5           0           0           3           4
           0           0           2           5           0           0
           1           2           6           7           1           3
           8           9           4           0           0           0
           4           0           0           0           5           0
           0           0           5           0           0           0
RBond                                      R   N=          36
  1.00000000E+00  1.00000000E+00  0.00000000E+00  0.00000000E+00  1.00000000E+00
  1.00000000E+00  0.00000000E+00  0.00000000E+00  1.00000000E+00  1.00000000E+00
  0.00000000E+00  0.00000000E+00  1.00000000E+00  1.00000000E+00  1.00000000E+00
  1.00000000E+00  1.00000000E+00  1.00000000E+00  1.00000000E+00  1.00000000E+00
  1.00000000E+00  0.00000000E+00  0.00000000E+00  0.00000000E+00  1.00000000E+00
  0.00000000E+00  0.00000000E+00  0.00000000E+00  1.00000000E+00  0.00000000E+00
  0.00000000E+00  0.00000000E+00  1.00000000E+00  0.00000000E+00  0.00000000E+00
  0.00000000E+00
Virial Ratio                               R      2.003637772623461E+00
SCF Energy                                 R     -1.273178624621021E+03
Total Energy                               R     -1.273178624621021E+03
RMS Density                                R      4.242447293382816E-09
External E-field                           R   N=          35
  0.00000000E+00  0.00000000E+00  0.00000000E+00  0.00000000E+00  0.00000000E+00
  0.00000000E+00  0.00000000E+00  0.00000000E+00  0.00000000E+00  0.00000000E+00
  0.00000000E+00  0.00000000E+00  0.00000000E+00  0.00000000E+00  0.00000000E+00
  0.00000000E+00  0.00000000E+00  0.00000000E+00  0.00000000E+00  0.00000000E+00
  0.00000000E+00  0.00000000E+00  0.00000000E+00  0.00000000E+00  0.00000000E+00
  0.00000000E+00  0.00000000E+00  0.00000000E+00  0.00000000E+00  0.00000000E+00
  0.00000000E+00  0.00000000E+00  0.00000000E+00  0.00000000E+00  0.00000000E+00
IOpCl                                      I                0
IROHF                                      I                0
Alpha Orbital Energies                     R   N=          95
 -8.89094650E+01 -8.89094572E+01 -8.88904872E+01 -1.02583199E+01 -1.02583165E+01
 -7.97122855E+00 -7.97121111E+00 -7.95162127E+00 -5.93673722E+00 -5.93664323E+00
 -5.93298762E+00 -5.93295141E+00 -5.92471987E+00 -5.92471178E+00 -5.91711965E+00
 -5.91339738E+00 -5.90547834E+00 -8.64060922E-01 -7.65263454E-01 -7.53986896E-01
 -6.08982064E-01 -6.08680677E-01 -4.75296679E-01 -4.62938102E-01 -4.46283519E-01
 -4.02808320E-01 -3.74960510E-01 -3.74538343E-01 -3.19672910E-01 -2.86710093E-01
 -2.38749640E-01 -2.31975844E-01 -5.18436858E-02  9.58490336E-04  1.39560200E-02
  4.63107000E-02  8.08060577E-02  1.07655792E-01  1.12903649E-01  1.30881236E-01
  1.34915708E-01  3.06786287E-01  3.30464857E-01  3.32162980E-01  3.47565419E-01
  3.53254292E-01  3.64644582E-01  3.72083303E-01  3.89820775E-01  4.01405339E-01
  4.21527785E-01  4.21849129E-01  4.54756986E-01  4.56128540E-01  5.10517656E-01
  5.27208671E-01  5.71618551E-01  6.20594600E-01  6.67300629E-01  6.81831030E-01
  7.32638482E-01  7.42786267E-01  7.77814021E-01  8.16853936E-01  8.26862486E-01
  8.56611029E-01  8.57741231E-01  8.87190760E-01  8.91776586E-01  9.04462446E-01
  9.12144041E-01  9.40805291E-01  9.70200408E-01  9.76214040E-01  1.01896058E+00
  1.05013120E+00  1.08725079E+00  1.18273060E+00  1.28189416E+00  1.37345126E+00
  1.69521693E+00  1.70472512E+00  1.73320682E+00  1.74999017E+00  2.05872792E+00
  2.12093538E+00  2.12531849E+00  2.17326732E+00  2.20965612E+00  2.23635768E+00
  3.79322899E+00  3.92202819E+00  3.92601577E+00  4.17232852E+00  4.18140422E+00
Alpha MO coefficients                      R   N=        9025
 -1.04195255E-06  1.84570844E-07  2.24524230E-07  5.61819851E-06 -4.18212127E-06
  2.68001314E-06 -1.21160894E-06 -3.23172604E-05  2.49565950E-05 -9.32156527E-06
 -4.86113398E-06 -3.53526861E-05 -6.97779009E-05 -1.37550445E-06 -7.61584242E-07
  1.16286875E-07 -2.94370143E-05 -1.21606156E-05  1.38446365E-07  7.17008976E-01
  1.06926752E-02 -3.98219247E-05 -5.06199567E-05 -3.98197645E-05 -1.74577959E-02
  5.71086919E-05  1.68971915E-04  7.99167955E-05  2.80654680E-03 -1.07344940E-04
 -4.11416060E-04 -1.65793639E-04  6.08103455E-03  6.01265294E-03  6.07673980E-03
  2.16527680E-06 -3.12656027E-06 -2.97950178E-05 -6.91467722E-01 -1.03118870E-02
  3.80993962E-05 -4.97763562E-05 -3.86864386E-05  1.68373065E-02 -5.32906778E-05
  1.70315705E-04  7.91521937E-05 -2.73142626E-03  1.00371489E-04 -4.10643103E-04
 -1.62411135E-04 -5.86393108E-03 -5.79257478E-03 -5.85943932E-03  2.24830002E-06
 -3.23847308E-06  3.11239723E-05 -2.07837179E-06  3.46453523E-05  8.25080063E-05
 -1.92366901E-05  2.98810490E-05  3.77209595E-05 -4.18684203E-05 -4.04133024E-07
 -2.34808924E-05 -2.33104610E-05  9.02556208E-06 -4.07616423E-06 -4.42657994E-06
 -1.18023957E-05  5.74613588E-06  1.42633893E-06 -3.40847943E-05 -7.95811482E-05
 -1.94574273E-05  2.87704219E-05 -2.32582408E-05  3.59204208E-05 -1.27362530E-07
 -2.30623950E-05  2.09200572E-05 -1.05854821E-05  2.25223663E-06 -5.17715649E-06
 -1.16281278E-05 -5.78714796E-06 -3.08777262E-05 -7.90599942E-05 -2.35882045E-05
 -8.07266545E-05  3.06991624E-05  7.08112936E-05  2.24812578E-05  7.42170364E-05
 -5.94353664E-05  1.02177754E-05  1.24069338E-05 -1.02170202E-07  8.05607002E-08
  1.49009492E-04 -6.70939811E-05  5.91203127E-07 -4.79066809E-07 -5.18777665E-04
 -2.70560956E-04  6.64524652E-07  1.23464948E-06 -7.61501101E-05 -4.20681250E-05
  6.50677211E-06  5.39843672E-07  2.06733309E-07  7.64536954E-06  6.91471006E-01
  1.03089148E-02 -4.65960871E-05 -2.24395716E-05 -3.06603624E-05 -1.67976887E-02
  1.04008971E-04 -3.99497873E-05  1.97342428E-05  2.02128572E-03 -1.90151397E-04
 -1.36564251E-05 -9.08317713E-05  5.87787262E-03  5.96121113E-03  5.88337323E-03
 -2.43492039E-06  3.18663477E-06  3.70773141E-05  7.17012143E-01  1.06898014E-02
 -4.80028587E-05  2.42622024E-05  3.20936043E-05 -1.74196122E-02  1.06011872E-04
  3.37950066E-05 -2.26520339E-05  2.12185637E-03 -1.93937891E-04  2.86291667E-05
  9.68610357E-05  6.09446788E-03  6.17528130E-03  6.09980658E-03  2.35726279E-06
 -3.07064998E-06  3.59725435E-05 -1.77952304E-05  1.54660777E-05  7.92592409E-05
  6.81863273E-06  3.02998214E-05  3.95303350E-04 -1.63983443E-04 -1.05316520E-05
 -9.60497164E-06 -6.51164985E-05 -4.29390899E-05 -5.01296884E-05  2.09715332E-05
 -4.86178575E-06 -1.33177117E-06 -1.78692546E-05  1.66718632E-05  8.21914160E-05
 -6.14265178E-06 -3.13847519E-05  3.96577980E-04 -1.65440740E-04  1.06124383E-05
  1.05312455E-05 -6.59396084E-05 -4.26017828E-05 -5.02632560E-05 -2.07930670E-05
  5.30018855E-06 -1.13811483E-06 -4.49394199E-06 -2.22075132E-04 -2.97798917E-05
 -1.76835124E-04 -5.62725787E-06 -2.24912417E-04 -3.06178091E-05 -1.79613626E-04
  9.96110792E-01  1.48641455E-02  9.36267786E-05  1.16645345E-08  2.14867472E-08
 -2.41695068E-02 -1.65141026E-04 -1.15932104E-08 -2.07982406E-08  3.04768315E-03
  2.28298407E-04  1.22792313E-08  3.30212383E-08  8.46832332E-03  8.46503079E-03
  8.48184398E-03 -6.69816473E-10 -2.10316885E-09  8.31978096E-06  4.46930183E-05
  5.38073084E-06 -9.38051820E-06  2.14610018E-06 -5.12037768E-06  8.05891699E-05
  5.19015853E-05 -1.75290219E-05  3.00193721E-05 -2.09689825E-04  1.30836381E-04
  3.86658248E-05 -1.54182670E-05 -6.15582047E-05 -3.08953672E-06 -1.47449031E-06
 -1.31089080E-05 -9.22911900E-06  3.42234256E-06  4.47450771E-05  5.38088819E-06
 -9.37965829E-06 -2.14602605E-06  5.12515336E-06  8.06129421E-05  5.19024759E-05
  1.75247520E-05 -3.00483221E-05 -2.09781436E-04  1.30930229E-04 -3.86316182E-05
  1.54371120E-05 -6.15755056E-05 -3.08752617E-06 -1.47926178E-06  1.31020273E-05
  9.23407654E-06  3.42238550E-06 -1.72238250E-05  1.14292977E-05 -9.21665506E-05
 -8.07155723E-05  2.64841402E-05  3.70754185E-04  8.56627792E-05  4.19952097E-05
 -2.89141118E-05 -3.64083995E-05 -4.04020284E-05 -3.36632640E-05 -9.59521736E-06
  4.68379202E-06 -1.46486168E-06 -1.72268180E-05  1.14369086E-05 -9.21833128E-05
  8.06923909E-05 -2.64938016E-05  3.70854426E-04  8.57190739E-05 -4.19720634E-05
  2.88076637E-05 -3.64266898E-05 -4.04244871E-05 -3.36803145E-05  9.62112287E-06
 -4.68856470E-06 -1.45835629E-06 -3.31035022E-05 -2.19375076E-04 -2.99125190E-05
 -1.80599602E-04 -3.30985613E-05 -2.19313818E-04 -2.99325713E-05 -1.80624338E-04
  4.28810350E-08 -8.44454822E-06 -3.55171687E-06  2.77275787E-05 -5.43457772E-06
  1.85361838E-05  4.50414870E-05 -4.12846930E-04  1.05789658E-04  5.07379671E-04
  2.49810479E-04 -1.19803342E-03  3.00420707E-04 -8.92065437E-06 -2.07074799E-05
 -3.42934137E-05 -1.04730771E-06 -1.50222208E-05 -3.34495730E-06 -4.78719523E-07
 -1.74491471E-05 -3.97867855E-06  8.17502283E-07 -1.15380694E-05 -1.50933855E-04
  1.90799361E-04  9.51764399E-07  1.19964027E-04 -1.41206880E-03  7.49905369E-04
 -5.99121922E-05  3.09623626E-04  3.94592393E-05  6.22782929E-06 -7.27228178E-06
  4.42571231E-05 -1.00502579E-05 -3.73435570E-05  5.80825600E-07  3.59025236E-06
  1.03938316E-05  5.77599594E-06 -1.01521867E-05  1.77987055E-04 -2.60166480E-04
 -4.96447879E-05  1.27408707E-04  1.89624465E-03 -1.03693220E-03 -5.89249121E-05
  4.64433245E-04 -6.20907849E-05 -5.01223911E-05 -4.60612719E-05  2.92610118E-05
 -1.40824562E-05  3.89684905E-05 -6.06657940E-01 -3.02069130E-02 -2.27236483E-05
  2.05549593E-04 -1.92354153E-04  8.85781403E-03  6.57684177E-05 -1.68633676E-04
  2.54966532E-04  5.57878699E-03  5.52950821E-03  5.42514193E-03  3.27414671E-05
  3.95652853E-05 -6.99397484E-05  7.86125896E-01  3.91659482E-02  4.71883296E-05
  2.50629993E-04 -2.42170142E-04 -1.17089464E-02 -1.23777713E-04 -3.62304809E-04
  3.70616278E-04 -7.24505718E-03 -7.16694696E-03 -7.05711367E-03  5.17628074E-05
  4.52844877E-05  7.95465242E-05  1.07353118E-04 -1.49840088E-03  6.29142127E-05
 -1.42363703E-03 -9.80274047E-05  1.81891498E-03 -7.85769836E-05  1.80604733E-03
  3.20996718E-07 -6.56739412E-05 -2.75440000E-05 -3.57580136E-06  6.99918121E-07
  1.42997857E-04  3.49228591E-04  5.32276507E-05 -1.35907992E-05  3.93918791E-03
  1.93919370E-03  1.54595038E-04 -3.82819456E-05 -6.91656303E-05 -1.60491998E-04
 -2.66391874E-04  1.76662219E-07  1.96524513E-06 -2.59405806E-05  4.57627988E-07
 -5.24605237E-05  2.57864475E-05 -1.97498998E-05 -3.98619028E-06  1.26001335E-04
 -2.98135695E-04  2.00027848E-04 -4.45583886E-05  2.09260134E-03 -1.22949542E-03
  3.49213158E-06 -6.49977299E-04 -9.44872787E-05 -1.74180432E-04 -2.09507590E-04
  5.33442577E-05  1.73106345E-05  1.13063637E-05  3.23783788E-07 -5.51247459E-05
  2.39273730E-05  1.89150843E-05  6.78066396E-06  8.38239594E-05 -2.39995133E-04
 -1.93793570E-04  1.27242940E-05  1.66525465E-03 -9.98703192E-04  1.15131717E-05
  5.50315507E-04 -8.13979706E-05 -1.66932433E-04 -2.04436540E-04 -6.27389048E-05
 -1.41863456E-05  1.47954495E-06  7.86126759E-01  3.92333551E-02  9.97205234E-05
 -2.04526261E-04  2.20894816E-04 -1.23896755E-02 -2.37381186E-04  7.85999811E-04
 -4.89665701E-04 -7.29178952E-03 -7.17199503E-03 -7.13628580E-03 -7.90991463E-05
 -2.75897297E-05  4.67813866E-05  6.06659011E-01  3.02943134E-02  9.06144726E-05
  1.45616171E-04 -1.65067613E-04 -9.73933056E-03 -2.12534299E-04 -7.17182765E-04
  4.09497470E-04 -5.63938171E-03 -5.53596171E-03 -5.52796684E-03  6.82350646E-05
  1.66774836E-05  2.75389852E-05  2.29059634E-05  1.45628531E-03 -6.98230753E-05
  1.69322704E-03  4.94000026E-05  1.02856062E-03 -5.16621563E-05  1.27747958E-03
  5.83183453E-06 -2.06117116E-04 -2.71169423E-05 -1.86336386E-07  4.70730720E-07
 -7.30117216E-04  6.35937712E-05  1.23035126E-06 -3.06485098E-06  3.29679055E-03
  1.89792475E-03  1.97493916E-06  6.98659381E-06  1.78963287E-04  5.86366359E-06
 -3.25323737E-04  1.69552937E-06  1.00097197E-06 -1.70504831E-05 -1.99899202E-01
  7.30438915E-01 -3.58479719E-03 -3.29866155E-03 -3.55554101E-03  5.70195601E-02
 -1.10470238E-03 -4.74355085E-04 -5.52761390E-04 -1.25612470E-02  2.34071081E-03
  5.73270649E-04  1.28724170E-03 -1.24560984E-02 -1.29269543E-02 -1.27233109E-02
 -1.52969629E-04  1.08873099E-04 -1.82319353E-04 -1.95672653E-01  7.14992652E-01
 -3.50736145E-03  3.23319643E-03  3.48217804E-03  5.58167528E-02 -1.08613782E-03
  4.48688624E-04  5.35552554E-04 -1.21639026E-02  2.30608701E-03 -4.81149021E-04
 -1.24897850E-03 -1.21984579E-02 -1.26779603E-02 -1.24609878E-02  1.49453853E-04
 -1.04618601E-04 -1.88420370E-04 -4.31547295E-07  2.99021815E-04 -5.46519563E-04
  9.02757012E-05 -1.40737425E-04 -6.10133685E-04  1.70492702E-03 -6.26192339E-04
 -1.12724929E-04 -4.23655754E-04  7.83743750E-05  2.41445550E-05 -1.17506909E-05
 -3.03287280E-04  5.17355439E-05 -5.71841172E-07  2.89433529E-04 -5.39236006E-04
 -9.12599520E-05  1.36080044E-04 -6.23393615E-04  1.70295997E-03  6.37871535E-04
  1.26365390E-04 -4.14465245E-04  7.91889501E-05  2.37093433E-05  1.58429167E-05
  2.97527357E-04  5.04697315E-05 -2.50339557E-04  1.33400712E-03  7.29399527E-05
  1.50790538E-03 -2.52371570E-04  1.31503508E-03  7.36940621E-05  1.50884404E-03
  1.04510340E-07 -2.43150288E-06 -3.06264241E-07  1.81456452E-05 -4.68691238E-05
 -8.12513419E-06  7.60736478E-07 -1.21029096E-04  3.03280378E-04  3.68640286E-05
  2.12052848E-05 -2.10507944E-04 -6.40872482E-04  1.99930887E-06 -4.06941979E-09
 -3.57528998E-06 -1.65938503E-04 -8.86362582E-05 -1.90519577E-07  1.95659983E-01
 -7.15058322E-01  3.54873073E-03  3.04039373E-03  3.41201657E-03 -5.56851915E-02
  8.50577355E-04  1.19741652E-03  8.12877156E-04  1.85061899E-02 -1.59223140E-03
 -4.32534240E-03 -1.81477426E-03  1.19242520E-02  1.15124750E-02  1.21359044E-02
  1.60097676E-04 -2.00548137E-04 -2.84420262E-04 -1.99886799E-01  7.30503219E-01
 -3.62369618E-03  3.11044294E-03  3.48760576E-03  5.68908478E-02 -8.73964044E-04
  1.20730722E-03  8.24626651E-04 -1.87700917E-02  1.64152514E-03 -4.33639823E-03
 -1.84203199E-03 -1.21877135E-02 -1.17861314E-02 -1.24049851E-02  1.63220899E-04
 -2.02944014E-04  2.80465247E-04 -9.26430215E-06 -4.53454671E-04  3.33968893E-04
  5.44850696E-05  2.27099392E-04 -5.78269465E-04 -9.88385119E-05 -5.66059004E-04
 -6.86677149E-04  4.13561615E-04  3.08596268E-05 -1.97720948E-05 -1.86046003E-04
  2.70834599E-04 -6.37807879E-05  9.26806097E-06  4.59908704E-04 -3.45561024E-04
  5.27740064E-05  2.30036687E-04  5.64649136E-04  1.35229765E-04 -5.54710379E-04
 -6.83545673E-04 -4.22446976E-04 -2.91794875E-05  2.01018091E-05 -1.85641431E-04
  2.77352377E-04  6.49249080E-05 -9.67457611E-05 -9.25619767E-04  3.49810218E-05
  7.37462791E-05  9.16498078E-05  9.52678036E-04 -3.35015479E-05 -4.23957527E-05
 -2.79738820E-01  1.02206915E+00  8.08580618E-03  1.27262913E-06  2.41610779E-06
  7.87871619E-02  1.96649750E-03  1.33472778E-07  3.30966928E-07 -1.82271409E-02
 -3.05810703E-03 -1.98217361E-07 -5.23498599E-07 -1.73246673E-02 -1.70545458E-02
 -1.78354150E-02 -2.00284520E-08  1.59701580E-07 -3.00182527E-04 -1.67701090E-05
 -4.48225006E-05  2.79133156E-05 -1.82340573E-05  2.80473356E-05 -3.84463285E-04
 -1.18278080E-04  1.65033990E-04 -1.67466715E-04  1.47004324E-03 -1.05465997E-03
 -4.03211405E-04  1.79401760E-04  1.98023952E-04 -1.39977204E-04 -1.93055542E-04
  1.23192464E-04  3.52134277E-05 -3.16441528E-05 -1.68469269E-05 -4.46294579E-05
  2.79131893E-05  1.82314446E-05 -2.80770719E-05 -3.84849095E-04 -1.18284109E-04