tryptophan static polarizability                                        
SP        RHF                                                         STO-3G              
Number of atoms                            I               27
Info1-9                                    I   N=           9
          35          34           0           0           0         110
           1           1           2
Charge                                     I                0
Multiplicity                               I                1
Number of electrons                        I              108
Number of alpha electrons                  I               54
Number of beta electrons                   I               54
Number of basis functions                  I               87
Number of independent functions            I               87
Number of point charges in /Mol/           I                0
Number of translation vectors              I                0
Atomic numbers                             I   N=          27
           7           6           6           8           6           1
           1           6           6           7           1           6
           6           6           1           6           1           6
           1           6           1           1           1           1
           1           8           1
Nuclear charges                            R   N=          27
  7.00000000E+00  6.00000000E+00  6.00000000E+00  8.00000000E+00  6.00000000E+00
  1.00000000E+00  1.00000000E+00  6.00000000E+00  6.00000000E+00  7.00000000E+00
  1.00000000E+00  6.00000000E+00  6.00000000E+00  6.00000000E+00  1.00000000E+00
  6.00000000E+00  1.00000000E+00  6.00000000E+00  1.00000000E+00  6.00000000E+00
  1.00000000E+00  1.00000000E+00  1.00000000E+00  1.00000000E+00  1.00000000E+00
  8.00000000E+00  1.00000000E+00
Current cartesian coordinates              R   N=          81
 -1.32248113E-01  6.27764601E-01  5.33145255E-01  2.59422273E+00  1.83438233E-01
 -2.44885337E-02  3.96261877E+00 -9.89447477E-02  2.58564655E+00  5.93043116E+00
 -1.24035667E+00  2.90642958E+00  3.69057176E+00  2.48237068E+00 -1.50347026E+00
  3.48517038E+00  4.16696046E+00 -3.40459067E-01  2.54279657E+00  2.75804301E+00
 -3.19093288E+00  6.43520664E+00  2.12983697E+00 -2.25218982E+00  8.47452402E+00
  3.06797757E+00 -1.05804217E+00  1.06786703E+01  2.33935365E+00 -2.32145498E+00
  1.24739526E+01  2.66684785E+00 -1.70616369E+00  1.00007368E+01  8.23216533E-01
 -4.37124211E+00  7.35897519E+00  6.72364184E-01 -4.39612958E+00  6.17168847E+00
 -7.24257868E-01 -6.31760193E+00  4.13175517E+00 -8.64938771E-01 -6.39028252E+00
  7.63104716E+00 -1.90626362E+00 -8.10144373E+00  6.74573470E+00 -2.99044685E+00
 -9.59142021E+00  1.02886440E+01 -1.73757951E+00 -8.03492709E+00  1.13818066E+01
 -2.69814597E+00 -9.47319844E+00  1.15026829E+01 -3.82489066E-01 -6.19219842E+00
  1.35411445E+01 -2.43351844E-01 -6.13379604E+00  8.59024555E+00  4.23776958E+00
  6.14913039E-01 -9.75056706E-01  1.41330839E+00 -1.03701764E+00  2.91405720E+00
 -1.53898157E+00 -1.12163999E+00 -1.00198547E+00 -1.10057454E+00  7.71860082E-01
  2.75443583E+00  1.13324747E+00  4.55301171E+00  1.13194885E+00  1.67097545E+00
  3.78849091E+00
Force Field                                I                0
Int Atom Types                             I   N=          27
           0           0           0           0           0           0
           0           0           0           0           0           0
           0           0           0           0           0           0
           0           0           0           0           0           0
           0           0           0
MM charges                                 R   N=          27
  0.00000000E+00  0.00000000E+00  0.00000000E+00  0.00000000E+00  0.00000000E+00
  0.00000000E+00  0.00000000E+00  0.00000000E+00  0.00000000E+00  0.00000000E+00
  0.00000000E+00  0.00000000E+00  0.00000000E+00  0.00000000E+00  0.00000000E+00
  0.00000000E+00  0.00000000E+00  0.00000000E+00  0.00000000E+00  0.00000000E+00
  0.00000000E+00  0.00000000E+00  0.00000000E+00  0.00000000E+00  0.00000000E+00
  0.00000000E+00  0.00000000E+00
Integer atomic weights                     I   N=          27
          14          12          12          16          12           1
           1          12          12          14           1          12
          12          12           1          12           1          12
           1          12           1           1           1           1
           1          16           1
Real atomic weights                        R   N=          27
  1.40030740E+01  1.20000000E+01  1.20000000E+01  1.59949146E+01  1.20000000E+01
  1.00782504E+00  1.00782504E+00  1.20000000E+01  1.20000000E+01  1.40030740E+01
  1.00782504E+00  1.20000000E+01  1.20000000E+01  1.20000000E+01  1.00782504E+00
  1.20000000E+01  1.00782504E+00  1.20000000E+01  1.00782504E+00  1.20000000E+01
  1.00782504E+00  1.00782504E+00  1.00782504E+00  1.00782504E+00  1.00782504E+00
  1.59949146E+01  1.00782504E+00
Atom fragment info                         I   N=          27
           0           0           0           0           0           0
           0           0           0           0           0           0
           0           0           0           0           0           0
           0           0           0           0           0           0
           0           0           0
Atom residue num                           I   N=          27
           0           0           0           0           0           0
           0           0           0           0           0           0
           0           0           0           0           0           0
           0           0           0           0           0           0
           0           0           0
Nuclear spins                              I   N=          27
           2           0           0           0           0           1
           1           0           0           2           1           0
           0           0           1           0           1           0
           1           0           1           1           1           1
           1           0           1
Nuclear ZEff                               R   N=          27
 -4.55000000E+00 -3.60000000E+00 -3.60000000E+00 -5.60000000E+00 -3.60000000E+00
 -1.00000000E+00 -1.00000000E+00 -3.60000000E+00 -3.60000000E+00 -4.55000000E+00
 -1.00000000E+00 -3.60000000E+00 -3.60000000E+00 -3.60000000E+00 -1.00000000E+00
 -3.60000000E+00 -1.00000000E+00 -3.60000000E+00 -1.00000000E+00 -3.60000000E+00
 -1.00000000E+00 -1.00000000E+00 -1.00000000E+00 -1.00000000E+00 -1.00000000E+00
 -5.60000000E+00 -1.00000000E+00
Nuclear QMom                               R   N=          27
  2.04400000E+00  0.00000000E+00  0.00000000E+00  0.00000000E+00  0.00000000E+00
  0.00000000E+00  0.00000000E+00  0.00000000E+00  0.00000000E+00  2.04400000E+00
  0.00000000E+00  0.00000000E+00  0.00000000E+00  0.00000000E+00  0.00000000E+00
  0.00000000E+00  0.00000000E+00  0.00000000E+00  0.00000000E+00  0.00000000E+00
  0.00000000E+00  0.00000000E+00  0.00000000E+00  0.00000000E+00  0.00000000E+00
  0.00000000E+00  0.00000000E+00
Nuclear GFac                               R   N=          27
  4.03761000E-01  0.00000000E+00  0.00000000E+00  0.00000000E+00  0.00000000E+00
  2.79284600E+00  2.79284600E+00  0.00000000E+00  0.00000000E+00  4.03761000E-01
  2.79284600E+00  0.00000000E+00  0.00000000E+00  0.00000000E+00  2.79284600E+00
  0.00000000E+00  2.79284600E+00  0.00000000E+00  2.79284600E+00  0.00000000E+00
  2.79284600E+00  2.79284600E+00  2.79284600E+00  2.79284600E+00  2.79284600E+00
  0.00000000E+00  2.79284600E+00
MicOpt                                     I   N=          27
          -1          -1          -1          -1          -1          -1
          -1          -1          -1          -1          -1          -1
          -1          -1          -1          -1          -1          -1
          -1          -1          -1          -1          -1          -1
          -1          -1          -1
Number of contracted shells                I               42
Number of primitive shells                 I              126
Pure/Cartesian d shells                    I                0
Pure/Cartesian f shells                    I                0
Highest angular momentum                   I                1
Largest degree of contraction              I                3
Shell types                                I   N=          42
           0          -1           0          -1           0          -1
           0          -1           0          -1           0           0
           0          -1           0          -1           0          -1
           0           0          -1           0          -1           0
          -1           0           0          -1           0           0
          -1           0           0          -1           0           0
           0           0           0           0          -1           0
Number of primitives per shell             I   N=          42
           3           3           3           3           3           3
           3           3           3           3           3           3
           3           3           3           3           3           3
           3           3           3           3           3           3
           3           3           3           3           3           3
           3           3           3           3           3           3
           3           3           3           3           3           3
Shell to atom map                          I   N=          42
           1           1           2           2           3           3
           4           4           5           5           6           7
           8           8           9           9          10          10
          11          12          12          13          13          14
          14          15          16          16          17          18
          18          19          20          20          21          22
          23          24          25          26          26          27
Primitive exponents                        R   N=         126
  9.91061690E+01  1.80523124E+01  4.88566024E+00  3.78045588E+00  8.78496645E-01
  2.85714374E-01  7.16168373E+01  1.30450963E+01  3.53051216E+00  2.94124936E+00
  6.83483096E-01  2.22289916E-01  7.16168373E+01  1.30450963E+01  3.53051216E+00
  2.94124936E+00  6.83483096E-01  2.22289916E-01  1.30709321E+02  2.38088661E+01
  6.44360831E+00  5.03315132E+00  1.16959612E+00  3.80388960E-01  7.16168373E+01
  1.30450963E+01  3.53051216E+00  2.94124936E+00  6.83483096E-01  2.22289916E-01
  3.42525091E+00  6.23913730E-01  1.68855404E-01  3.42525091E+00  6.23913730E-01
  1.68855404E-01  7.16168373E+01  1.30450963E+01  3.53051216E+00  2.94124936E+00
  6.83483096E-01  2.22289916E-01  7.16168373E+01  1.30450963E+01  3.53051216E+00
  2.94124936E+00  6.83483096E-01  2.22289916E-01  9.91061690E+01  1.80523124E+01
  4.88566024E+00  3.78045588E+00  8.78496645E-01  2.85714374E-01  3.42525091E+00
  6.23913730E-01  1.68855404E-01  7.16168373E+01  1.30450963E+01  3.53051216E+00
  2.94124936E+00  6.83483096E-01  2.22289916E-01  7.16168373E+01  1.30450963E+01
  3.53051216E+00  2.94124936E+00  6.83483096E-01  2.22289916E-01  7.16168373E+01
  1.30450963E+01  3.53051216E+00  2.94124936E+00  6.83483096E-01  2.22289916E-01
  3.42525091E+00  6.23913730E-01  1.68855404E-01  7.16168373E+01  1.30450963E+01
  3.53051216E+00  2.94124936E+00  6.83483096E-01  2.22289916E-01  3.42525091E+00
  6.23913730E-01  1.68855404E-01  7.16168373E+01  1.30450963E+01  3.53051216E+00
  2.94124936E+00  6.83483096E-01  2.22289916E-01  3.42525091E+00  6.23913730E-01
  1.68855404E-01  7.16168373E+01  1.30450963E+01  3.53051216E+00  2.94124936E+00
  6.83483096E-01  2.22289916E-01  3.42525091E+00  6.23913730E-01  1.68855404E-01
  3.42525091E+00  6.23913730E-01  1.68855404E-01  3.42525091E+00  6.23913730E-01
  1.68855404E-01  3.42525091E+00  6.23913730E-01  1.68855404E-01  3.42525091E+00
  6.23913730E-01  1.68855404E-01  1.30709321E+02  2.38088661E+01  6.44360831E+00
  5.03315132E+00  1.16959612E+00  3.80388960E-01  3.42525091E+00  6.23913730E-01
  1.68855404E-01
Contraction coefficients                   R   N=         126
  1.54328967E-01  5.35328142E-01  4.44634542E-01 -9.99672292E-02  3.99512826E-01
  7.00115469E-01  1.54328967E-01  5.35328142E-01  4.44634542E-01 -9.99672292E-02
  3.99512826E-01  7.00115469E-01  1.54328967E-01  5.35328142E-01  4.44634542E-01
 -9.99672292E-02  3.99512826E-01  7.00115469E-01  1.54328967E-01  5.35328142E-01
  4.44634542E-01 -9.99672292E-02  3.99512826E-01  7.00115469E-01  1.54328967E-01
  5.35328142E-01  4.44634542E-01 -9.99672292E-02  3.99512826E-01  7.00115469E-01
  1.54328967E-01  5.35328142E-01  4.44634542E-01  1.54328967E-01  5.35328142E-01
  4.44634542E-01  1.54328967E-01  5.35328142E-01  4.44634542E-01 -9.99672292E-02
  3.99512826E-01  7.00115469E-01  1.54328967E-01  5.35328142E-01  4.44634542E-01
 -9.99672292E-02  3.99512826E-01  7.00115469E-01  1.54328967E-01  5.35328142E-01
  4.44634542E-01 -9.99672292E-02  3.99512826E-01  7.00115469E-01  1.54328967E-01
  5.35328142E-01  4.44634542E-01  1.54328967E-01  5.35328142E-01  4.44634542E-01
 -9.99672292E-02  3.99512826E-01  7.00115469E-01  1.54328967E-01  5.35328142E-01
  4.44634542E-01 -9.99672292E-02  3.99512826E-01  7.00115469E-01  1.54328967E-01
  5.35328142E-01  4.44634542E-01 -9.99672292E-02  3.99512826E-01  7.00115469E-01
  1.54328967E-01  5.35328142E-01  4.44634542E-01  1.54328967E-01  5.35328142E-01
  4.44634542E-01 -9.99672292E-02  3.99512826E-01  7.00115469E-01  1.54328967E-01
  5.35328142E-01  4.44634542E-01  1.54328967E-01  5.35328142E-01  4.44634542E-01
 -9.99672292E-02  3.99512826E-01  7.00115469E-01  1.54328967E-01  5.35328142E-01
  4.44634542E-01  1.54328967E-01  5.35328142E-01  4.44634542E-01 -9.99672292E-02
  3.99512826E-01  7.00115469E-01  1.54328967E-01  5.35328142E-01  4.44634542E-01
  1.54328967E-01  5.35328142E-01  4.44634542E-01  1.54328967E-01  5.35328142E-01
  4.44634542E-01  1.54328967E-01  5.35328142E-01  4.44634542E-01  1.54328967E-01
  5.35328142E-01  4.44634542E-01  1.54328967E-01  5.35328142E-01  4.44634542E-01
 -9.99672292E-02  3.99512826E-01  7.00115469E-01  1.54328967E-01  5.35328142E-01
  4.44634542E-01
P(S=P) Contraction coefficients            R   N=         126
  0.00000000E+00  0.00000000E+00  0.00000000E+00  1.55916275E-01  6.07683719E-01
  3.91957393E-01  0.00000000E+00  0.00000000E+00  0.00000000E+00  1.55916275E-01
  6.07683719E-01  3.91957393E-01  0.00000000E+00  0.00000000E+00  0.00000000E+00
  1.55916275E-01  6.07683719E-01  3.91957393E-01  0.00000000E+00  0.00000000E+00
  0.00000000E+00  1.55916275E-01  6.07683719E-01  3.91957393E-01  0.00000000E+00
  0.00000000E+00  0.00000000E+00  1.55916275E-01  6.07683719E-01  3.91957393E-01
  0.00000000E+00  0.00000000E+00  0.00000000E+00  0.00000000E+00  0.00000000E+00
  0.00000000E+00  0.00000000E+00  0.00000000E+00  0.00000000E+00  1.55916275E-01
  6.07683719E-01  3.91957393E-01  0.00000000E+00  0.00000000E+00  0.00000000E+00
  1.55916275E-01  6.07683719E-01  3.91957393E-01  0.00000000E+00  0.00000000E+00
  0.00000000E+00  1.55916275E-01  6.07683719E-01  3.91957393E-01  0.00000000E+00
  0.00000000E+00  0.00000000E+00  0.00000000E+00  0.00000000E+00  0.00000000E+00
  1.55916275E-01  6.07683719E-01  3.91957393E-01  0.00000000E+00  0.00000000E+00
  0.00000000E+00  1.55916275E-01  6.07683719E-01  3.91957393E-01  0.00000000E+00
  0.00000000E+00  0.00000000E+00  1.55916275E-01  6.07683719E-01  3.91957393E-01
  0.00000000E+00  0.00000000E+00  0.00000000E+00  0.00000000E+00  0.00000000E+00
  0.00000000E+00  1.55916275E-01  6.07683719E-01  3.91957393E-01  0.00000000E+00
  0.00000000E+00  0.00000000E+00  0.00000000E+00  0.00000000E+00  0.00000000E+00
  1.55916275E-01  6.07683719E-01  3.91957393E-01  0.00000000E+00  0.00000000E+00
  0.00000000E+00  0.00000000E+00  0.00000000E+00  0.00000000E+00  1.55916275E-01
  6.07683719E-01  3.91957393E-01  0.00000000E+00  0.00000000E+00  0.00000000E+00
  0.00000000E+00  0.00000000E+00  0.00000000E+00  0.00000000E+00  0.00000000E+00
  0.00000000E+00  0.00000000E+00  0.00000000E+00  0.00000000E+00  0.00000000E+00
  0.00000000E+00  0.00000000E+00  0.00000000E+00  0.00000000E+00  0.00000000E+00
  1.55916275E-01  6.07683719E-01  3.91957393E-01  0.00000000E+00  0.00000000E+00
  0.00000000E+00
Coordinates of each shell                  R   N=         126
 -1.32248113E-01  6.27764601E-01  5.33145255E-01 -1.32248113E-01  6.27764601E-01
  5.33145255E-01  2.59422273E+00  1.83438233E-01 -2.44885337E-02  2.59422273E+00
  1.83438233E-01 -2.44885337E-02  3.96261877E+00 -9.89447477E-02  2.58564655E+00
  3.96261877E+00 -9.89447477E-02  2.58564655E+00  5.93043116E+00 -1.24035667E+00
  2.90642958E+00  5.93043116E+00 -1.24035667E+00  2.90642958E+00  3.69057176E+00
  2.48237068E+00 -1.50347026E+00  3.69057176E+00  2.48237068E+00 -1.50347026E+00
  3.48517038E+00  4.16696046E+00 -3.40459067E-01  2.54279657E+00  2.75804301E+00
 -3.19093288E+00  6.43520664E+00  2.12983697E+00 -2.25218982E+00  6.43520664E+00
  2.12983697E+00 -2.25218982E+00  8.47452402E+00  3.06797757E+00 -1.05804217E+00
  8.47452402E+00  3.06797757E+00 -1.05804217E+00  1.06786703E+01  2.33935365E+00
 -2.32145498E+00  1.06786703E+01  2.33935365E+00 -2.32145498E+00  1.24739526E+01
  2.66684785E+00 -1.70616369E+00  1.00007368E+01  8.23216533E-01 -4.37124211E+00
  1.00007368E+01  8.23216533E-01 -4.37124211E+00  7.35897519E+00  6.72364184E-01
 -4.39612958E+00  7.35897519E+00  6.72364184E-01 -4.39612958E+00  6.17168847E+00
 -7.24257868E-01 -6.31760193E+00  6.17168847E+00 -7.24257868E-01 -6.31760193E+00
  4.13175517E+00 -8.64938771E-01 -6.39028252E+00  7.63104716E+00 -1.90626362E+00
 -8.10144373E+00  7.63104716E+00 -1.90626362E+00 -8.10144373E+00  6.74573470E+00
 -2.99044685E+00 -9.59142021E+00  1.02886440E+01 -1.73757951E+00 -8.03492709E+00
  1.02886440E+01 -1.73757951E+00 -8.03492709E+00  1.13818066E+01 -2.69814597E+00
 -9.47319844E+00  1.15026829E+01 -3.82489066E-01 -6.19219842E+00  1.15026829E+01
 -3.82489066E-01 -6.19219842E+00  1.35411445E+01 -2.43351844E-01 -6.13379604E+00
  8.59024555E+00  4.23776958E+00  6.14913039E-01 -9.75056706E-01  1.41330839E+00
 -1.03701764E+00  2.91405720E+00 -1.53898157E+00 -1.12163999E+00 -1.00198547E+00
 -1.10057454E+00  7.71860082E-01  2.75443583E+00  1.13324747E+00  4.55301171E+00
  2.75443583E+00  1.13324747E+00  4.55301171E+00  1.13194885E+00  1.67097545E+00
  3.78849091E+00
Constraint Structure                       R   N=          81
 -1.32248113E-01  6.27764601E-01  5.33145255E-01  2.59422273E+00  1.83438233E-01
 -2.44885337E-02  3.96261877E+00 -9.89447477E-02  2.58564655E+00  5.93043116E+00
 -1.24035667E+00  2.90642958E+00  3.69057176E+00  2.48237068E+00 -1.50347026E+00
  3.48517038E+00  4.16696046E+00 -3.40459067E-01  2.54279657E+00  2.75804301E+00
 -3.19093288E+00  6.43520664E+00  2.12983697E+00 -2.25218982E+00  8.47452402E+00
  3.06797757E+00 -1.05804217E+00  1.06786703E+01  2.33935365E+00 -2.32145498E+00
  1.24739526E+01  2.66684785E+00 -1.70616369E+00  1.00007368E+01  8.23216533E-01
 -4.37124211E+00  7.35897519E+00  6.72364184E-01 -4.39612958E+00  6.17168847E+00
 -7.24257868E-01 -6.31760193E+00  4.13175517E+00 -8.64938771E-01 -6.39028252E+00
  7.63104716E+00 -1.90626362E+00 -8.10144373E+00  6.74573470E+00 -2.99044685E+00
 -9.59142021E+00  1.02886440E+01 -1.73757951E+00 -8.03492709E+00  1.13818066E+01
 -2.69814597E+00 -9.47319844E+00  1.15026829E+01 -3.82489066E-01 -6.19219842E+00
  1.35411445E+01 -2.43351844E-01 -6.13379604E+00  8.59024555E+00  4.23776958E+00
  6.14913039E-01 -9.75056706E-01  1.41330839E+00 -1.03701764E+00  2.91405720E+00
 -1.53898157E+00 -1.12163999E+00 -1.00198547E+00 -1.10057454E+00  7.71860082E-01
  2.75443583E+00  1.13324747E+00  4.55301171E+00  1.13194885E+00  1.67097545E+00
  3.78849091E+00
Num ILSW                                   I              100
ILSW                                       I   N=         100
           0           0           0           0           2           0
           0           0           0           0           0          -1
           0           0           0           0           0           0
           0           0           0           0           0           0
           1           1           0           0           0           0
           0           0      100000           0          -1           0
           0           0           0           0           0           0
           0           0           0           1           0           0
           0           0           1           0           0           0
           0           0           4          40           0           0
           0           0           0           0           0           0
           0           0           0           0           0           0
           0           0           0           0           0           0
           0           0           0           0           0           0
           0           0           0           0           0           0
           0           0           0           0           0           0
           0           0           0           0
Num RLSW                                   I               40
RLSW                                       R   N=          40
  1.00000000E+00  1.00000000E+00  1.00000000E+00  1.00000000E+00  1.00000000E+00
  0.00000000E+00  0.00000000E+00  1.00000000E+00  0.00000000E+00  0.00000000E+00
  0.00000000E+00  0.00000000E+00  1.00000000E+00  0.00000000E+00  0.00000000E+00
  0.00000000E+00  0.00000000E+00  1.00000000E+00  0.00000000E+00  0.00000000E+00
  0.00000000E+00  0.00000000E+00  1.00000000E+00  0.00000000E+00  0.00000000E+00
  0.00000000E+00  0.00000000E+00  1.00000000E+00  0.00000000E+00  0.00000000E+00
  0.00000000E+00  0.00000000E+00  0.00000000E+00  0.00000000E+00  0.00000000E+00
  0.00000000E+00  0.00000000E+00  0.00000000E+00  1.00000000E+00  1.00000000E+00
MxBond                                     I                4
NBond                                      I   N=          27
           3           4           3           1           4           1
           1           3           3           3           1           3
           3           3           1           3           1           3
           1           3           1           1           1           1
           1           2           1
IBond                                      I   N=         108
           2          23          25           0           1           3
           5          24           2           4          26           0
           3           0           0           0           2           6
           7           8           5           0           0           0
           5           0           0           0           5           9
          13           0           8          10          22           0
           9          11          12           0          10           0
           0           0          10          13          20           0
           8          12          14           0          13          15
          16           0          14           0           0           0
          14          17          18           0          16           0
           0           0          16          19          20           0
          18           0           0           0          12          18
          21           0          20           0           0           0
           9           0           0           0           1           0
           0           0           2           0           0           0
           1           0           0           0           3          27
           0           0          26           0           0           0
RBond                                      R   N=         108
  1.00000000E+00  1.00000000E+00  1.00000000E+00  0.00000000E+00  1.00000000E+00
  1.00000000E+00  1.00000000E+00  1.00000000E+00  1.00000000E+00  2.00000000E+00
  1.50000000E+00  0.00000000E+00  2.00000000E+00  0.00000000E+00  0.00000000E+00
  0.00000000E+00  1.00000000E+00  1.00000000E+00  1.00000000E+00  1.00000000E+00
  1.00000000E+00  0.00000000E+00  0.00000000E+00  0.00000000E+00  1.00000000E+00
  0.00000000E+00  0.00000000E+00  0.00000000E+00  1.00000000E+00  2.00000000E+00
  1.00000000E+00  0.00000000E+00  2.00000000E+00  1.00000000E+00  1.00000000E+00
  0.00000000E+00  1.00000000E+00  1.00000000E+00  1.00000000E+00  0.00000000E+00
  1.00000000E+00  0.00000000E+00  0.00000000E+00  0.00000000E+00  1.00000000E+00
  1.50000000E+00  1.50000000E+00  0.00000000E+00  1.00000000E+00  1.50000000E+00
  1.50000000E+00  0.00000000E+00  1.50000000E+00  1.00000000E+00  1.50000000E+00
  0.00000000E+00  1.00000000E+00  0.00000000E+00  0.00000000E+00  0.00000000E+00
  1.50000000E+00  1.00000000E+00  1.50000000E+00  0.00000000E+00  1.00000000E+00
  0.00000000E+00  0.00000000E+00  0.00000000E+00  1.50000000E+00  1.00000000E+00
  1.50000000E+00  0.00000000E+00  1.00000000E+00  0.00000000E+00  0.00000000E+00
  0.00000000E+00  1.50000000E+00  1.50000000E+00  1.00000000E+00  0.00000000E+00
  1.00000000E+00  0.00000000E+00  0.00000000E+00  0.00000000E+00  1.00000000E+00
  0.00000000E+00  0.00000000E+00  0.00000000E+00  1.00000000E+00  0.00000000E+00
  0.00000000E+00  0.00000000E+00  1.00000000E+00  0.00000000E+00  0.00000000E+00
  0.00000000E+00  1.00000000E+00  0.00000000E+00  0.00000000E+00  0.00000000E+00
  1.50000000E+00  1.00000000E+00  0.00000000E+00  0.00000000E+00  1.00000000E+00
  0.00000000E+00  0.00000000E+00  0.00000000E+00
Virial Ratio                               R      2.009190975856842E+00
SCF Energy                                 R     -6.735905711567798E+02
Total Energy                               R     -6.735905711567798E+02
RMS Density                                R      5.800061977068861E-09
External E-field                           R   N=          35
  0.00000000E+00  0.00000000E+00  0.00000000E+00  0.00000000E+00  0.00000000E+00
  0.00000000E+00  0.00000000E+00  0.00000000E+00  0.00000000E+00  0.00000000E+00
  0.00000000E+00  0.00000000E+00  0.00000000E+00  0.00000000E+00  0.00000000E+00
  0.00000000E+00  0.00000000E+00  0.00000000E+00  0.00000000E+00  0.00000000E+00
  0.00000000E+00  0.00000000E+00  0.00000000E+00  0.00000000E+00  0.00000000E+00
  0.00000000E+00  0.00000000E+00  0.00000000E+00  0.00000000E+00  0.00000000E+00
  0.00000000E+00  0.00000000E+00  0.00000000E+00  0.00000000E+00  0.00000000E+00
IOpCl                                      I                0
IROHF                                      I                0
Alpha Orbital Energies                     R   N=          87
 -2.02690029E+01 -2.02422818E+01 -1.53897248E+01 -1.53454286E+01 -1.11481690E+01
 -1.10984710E+01 -1.10680736E+01 -1.10651517E+01 -1.10633631E+01 -1.10254040E+01
 -1.10252678E+01 -1.10239059E+01 -1.10160427E+01 -1.10149152E+01 -1.10115487E+01
 -1.34767972E+00 -1.25783888E+00 -1.21998807E+00 -1.15379019E+00 -1.07454722E+00
 -1.02552467E+00 -9.59273431E-01 -9.36775783E-01 -9.13338006E-01 -8.37641253E-01
 -7.83051424E-01 -7.49374498E-01 -7.10597957E-01 -6.92634068E-01 -6.69163392E-01
 -6.48388956E-01 -6.16892286E-01 -6.02324150E-01 -5.98356664E-01 -5.80763080E-01
 -5.56460291E-01 -5.42814289E-01 -5.36860136E-01 -5.24088455E-01 -5.17742054E-01
 -4.97934969E-01 -4.87160195E-01 -4.78773834E-01 -4.59727110E-01 -4.44625303E-01
 -4.38476703E-01 -4.16688430E-01 -4.13912219E-01 -3.69714570E-01 -3.28525025E-01
 -3.25620309E-01 -3.06744658E-01 -2.42586040E-01 -2.25668688E-01  2.47576546E-01
  2.95186202E-01  3.18509984E-01  3.69439530E-01  5.21849384E-01  5.33597256E-01
  5.60984799E-01  5.68572576E-01  5.78367115E-01  6.12576774E-01  6.16757910E-01
  6.26558842E-01  6.44065750E-01  6.53055081E-01  6.77436621E-01  6.85124569E-01
  6.91117469E-01  7.16693482E-01  7.22605734E-01  7.42018032E-01  7.44633447E-01
  7.54212893E-01  7.71005877E-01  8.02945081E-01  8.25684457E-01  8.83595463E-01
  9.13202898E-01  9.59773706E-01  9.64833783E-01  1.00407692E+00  1.08620666E+00
  1.14488465E+00  1.17394481E+00
Alpha MO coefficients                      R   N=        7569
 -5.28516435E-05  3.73077341E-04  8.62986128E-05  1.76803317E-04  5.09017795E-04
 -3.07050043E-05  2.90702028E-04 -1.80628849E-04  1.97345481E-04  3.66066178E-04
  5.12830123E-04 -4.53942301E-03  1.99708654E-03 -2.10833431E-03 -3.45505673E-03
  1.22911441E-03  2.55273438E-04 -1.38767085E-04  2.01024315E-04  4.44127774E-04
 -5.55774314E-06 -6.56264259E-07  1.70118550E-05 -3.17410788E-05  3.04876914E-05
  7.95813110E-05  1.05819950E-05  2.84204207E-06 -1.97174642E-05  3.91844220E-06
  8.60153835E-06 -1.42615875E-05  5.38976294E-08  3.19680032E-10 -5.78352348E-06
 -4.51319104E-06  1.70037715E-07 -1.29738687E-07  1.43645020E-06 -7.46248803E-07
  7.67831800E-07  5.26684531E-07 -1.57799891E-07 -2.53582626E-08  3.01475991E-07
 -1.64740500E-07 -1.19240866E-07 -1.61377137E-07 -2.46375517E-07  1.68027615E-06
 -1.78478478E-06 -4.23928007E-07  1.69542404E-06  5.28509066E-08 -8.98350223E-07
  3.38133339E-07  8.65327354E-08  2.84069983E-07  1.54489121E-06 -1.91897000E-08
  2.20599448E-07 -8.93689120E-08  1.20067606E-07  7.68388202E-08 -3.13264972E-08
 -5.06700642E-10 -7.25874959E-10  1.50851906E-09 -4.43337804E-09  8.39887126E-09
  5.05094855E-09  1.40116448E-09 -5.00009050E-08  2.78211118E-08  2.36804168E-09
 -2.11434571E-08  9.64086289E-09  8.63270111E-06  7.12611401E-05  1.84498643E-05
  8.27625168E-05  9.94139525E-01  2.62667589E-02 -1.18419968E-03 -7.18935218E-04
 -3.99138144E-03 -5.83374017E-03  3.50991260E-06 -6.50367930E-06 -1.60214594E-05
  1.17820479E-05 -7.62937594E-05 -2.25832473E-05  2.09969277E-04  3.32669962E-04
 -2.75790596E-04 -5.74346372E-05  5.40741420E-04 -7.31729250E-03 -5.56710194E-03