Title                                                                   
Scan      RB3LYP                                                      6-31G(d)            
Number of atoms                            I                3
Info1-9                                    I   N=           9
          14          14           0           0           0         110
           8          18        -502
Charge                                     I                0
Multiplicity                               I                1
Number of electrons                        I               10
Number of alpha electrons                  I                5
Number of beta electrons                   I                5
Number of basis functions                  I               19
Number of independent functions            I               19
Number of point charges in /Mol/           I                0
Number of translation vectors              I                0
Atomic numbers                             I   N=           3
           8           1           1
Nuclear charges                            R   N=           3
  8.00000000E+00  1.00000000E+00  1.00000000E+00
Current cartesian coordinates              R   N=           9
 -2.67202567E-33 -1.20337338E-17  2.16780476E-01 -2.97683433E-32  1.54797302E+00
 -8.67121905E-01 -1.89572021E-16 -1.54797302E+00 -8.67121905E-01
Force Field                                I                0
Int Atom Types                             I   N=           3
           0           0           0
MM charges                                 R   N=           3
  0.00000000E+00  0.00000000E+00  0.00000000E+00
Integer atomic weights                     I   N=           3
          16           1           1
Real atomic weights                        R   N=           3
  1.59949146E+01  1.00782504E+00  1.00782504E+00
Atom fragment info                         I   N=           3
           0           0           0
Atom residue num                           I   N=           3
           0           0           0
Nuclear spins                              I   N=           3
           0           1           1
Nuclear ZEff                               R   N=           3
 -5.60000000E+00 -1.00000000E+00 -1.00000000E+00
Nuclear QMom                               R   N=           3
  0.00000000E+00  0.00000000E+00  0.00000000E+00
Nuclear GFac                               R   N=           3
  0.00000000E+00  2.79284600E+00  2.79284600E+00
MicOpt                                     I   N=           3
          -1          -1          -1
Number of contracted shells                I                8
Number of primitive shells                 I               19
Pure/Cartesian d shells                    I                1
Pure/Cartesian f shells                    I                0
Highest angular momentum                   I                2
Largest degree of contraction              I                6
Shell types                                I   N=           8
           0          -1          -1           2           0           0
           0           0
Number of primitives per shell             I   N=           8
           6           3           1           1           3           1
           3           1
Shell to atom map                          I   N=           8
           1           1           1           1           2           2
           3           3
Primitive exponents                        R   N=          19
  5.48467166E+03  8.25234946E+02  1.88046958E+02  5.29645000E+01  1.68975704E+01
  5.79963534E+00  1.55396162E+01  3.59993359E+00  1.01376175E+00  2.70005823E-01
  8.00000000E-01  1.87311370E+01  2.82539436E+00  6.40121692E-01  1.61277759E-01
  1.87311370E+01  2.82539436E+00  6.40121692E-01  1.61277759E-01
Contraction coefficients                   R   N=          19
  1.83107443E-03  1.39501722E-02  6.84450781E-02  2.32714336E-01  4.70192898E-01
  3.58520853E-01 -1.10777550E-01 -1.48026263E-01  1.13076702E+00  1.00000000E+00
  1.00000000E+00  3.34946043E-02  2.34726953E-01  8.13757326E-01  1.00000000E+00
  3.34946043E-02  2.34726953E-01  8.13757326E-01  1.00000000E+00
P(S=P) Contraction coefficients            R   N=          19
  0.00000000E+00  0.00000000E+00  0.00000000E+00  0.00000000E+00  0.00000000E+00
  0.00000000E+00  7.08742682E-02  3.39752839E-01  7.27158577E-01  1.00000000E+00
  0.00000000E+00  0.00000000E+00  0.00000000E+00  0.00000000E+00  0.00000000E+00
  0.00000000E+00  0.00000000E+00  0.00000000E+00  0.00000000E+00
Coordinates of each shell                  R   N=          24
 -2.67202567E-33 -1.20337338E-17  2.16780476E-01 -2.67202567E-33 -1.20337338E-17
  2.16780476E-01 -2.67202567E-33 -1.20337338E-17  2.16780476E-01 -2.67202567E-33
 -1.20337338E-17  2.16780476E-01 -2.97683433E-32  1.54797302E+00 -8.67121905E-01
 -2.97683433E-32  1.54797302E+00 -8.67121905E-01 -1.89572021E-16 -1.54797302E+00
 -8.67121905E-01 -1.89572021E-16 -1.54797302E+00 -8.67121905E-01
Constraint Structure                       R   N=           9
 -8.89401977E-33  0.00000000E+00  2.40522869E-01 -6.52228117E-32  1.20261435E+00
 -9.62091477E-01 -1.47277781E-16 -1.20261435E+00 -9.62091477E-01
Num ILSW                                   I              100
ILSW                                       I   N=         100
           0           1           0           0           2           0
           0           0           0           0         402          -1
           0           0           0           0           0           0
           0           0           1           0           0           0
           1           0           0           0           0           0
           0           0      100000           0          -1           0
           0           0           0           0           0           0
           0           0           0           1           0           0
           0           0           1           0           0           0
           0           0           4          40           0           0
           0           0           5           0           0           0
           0           0           0           0           0           0
           0           0           0           0           0           0
           0           0           0           0           0           0
           0           0           0           0           0           0
           0           0           0           0           0           0
           0           0           0           0
Num RLSW                                   I               40
RLSW                                       R   N=          40
  8.00000000E-01  7.20000000E-01  1.00000000E+00  8.10000000E-01  2.00000000E-01
  0.00000000E+00  0.00000000E+00  1.00000000E+00  0.00000000E+00  0.00000000E+00
  0.00000000E+00  0.00000000E+00  1.00000000E+00  0.00000000E+00  0.00000000E+00
  0.00000000E+00  0.00000000E+00  1.00000000E+00  0.00000000E+00  0.00000000E+00
  0.00000000E+00  0.00000000E+00  1.00000000E+00  0.00000000E+00  0.00000000E+00
  0.00000000E+00  0.00000000E+00  1.00000000E+00  0.00000000E+00  0.00000000E+00
  0.00000000E+00  0.00000000E+00  0.00000000E+00  0.00000000E+00  0.00000000E+00
  0.00000000E+00  0.00000000E+00  0.00000000E+00  1.00000000E+00  1.00000000E+00
MxBond                                     I                2
NBond                                      I   N=           3
           2           1           1
IBond                                      I   N=           6
           2           3           1           0           1           0
RBond                                      R   N=           6
  1.00000000E+00  1.00000000E+00  1.00000000E+00  0.00000000E+00  1.00000000E+00
  0.00000000E+00
Virial Ratio                               R      2.003546452389211E+00
SCF Energy                                 R     -7.639109094065086E+01
Total Energy                               R     -7.639109094065086E+01
RMS Density                                R      4.074211680582547E-09
External E-field                           R   N=          35
  0.00000000E+00  0.00000000E+00  0.00000000E+00  0.00000000E+00  0.00000000E+00
  0.00000000E+00  0.00000000E+00  0.00000000E+00  0.00000000E+00  0.00000000E+00
  0.00000000E+00  0.00000000E+00  0.00000000E+00  0.00000000E+00  0.00000000E+00
  0.00000000E+00  0.00000000E+00  0.00000000E+00  0.00000000E+00  0.00000000E+00
  0.00000000E+00  0.00000000E+00  0.00000000E+00  0.00000000E+00  0.00000000E+00
  0.00000000E+00  0.00000000E+00  0.00000000E+00  0.00000000E+00  0.00000000E+00
  0.00000000E+00  0.00000000E+00  0.00000000E+00  0.00000000E+00  0.00000000E+00
IOpCl                                      I                0
IROHF                                      I                0
Alpha Orbital Energies                     R   N=          19
 -1.91398073E+01 -9.79787518E-01 -5.15393299E-01 -3.57191480E-01 -2.86730360E-01
  5.35013006E-02  1.38884832E-01  7.82669420E-01  8.06831891E-01  8.92688955E-01
  8.93997487E-01  1.06781716E+00  1.16542500E+00  1.74893094E+00  1.75451731E+00
  1.79184021E+00  2.25344657E+00  2.52378102E+00  3.54630590E+00
Alpha MO coefficients                      R   N=         361
  9.92798478E-01  2.63637594E-02  0.00000000E+00  0.00000000E+00 -1.23886560E-03
  1.03651980E-02  0.00000000E+00  0.00000000E+00 -6.92378006E-05 -7.84969998E-03
 -7.82040561E-03 -7.80788593E-03  0.00000000E+00  0.00000000E+00  0.00000000E+00
  2.75686733E-04 -1.01976234E-03  2.75686733E-04 -1.01976234E-03 -2.04158890E-01
  4.60702213E-01  0.00000000E+00  0.00000000E+00 -1.61830018E-01  3.89645297E-01
  0.00000000E+00  0.00000000E+00 -5.92289162E-02 -9.09144253E-03  1.28620318E-02
  2.65360272E-02  0.00000000E+00  0.00000000E+00  0.00000000E+00  1.61672083E-01
  5.61308701E-03  1.61672083E-01  5.61308701E-03  0.00000000E+00  0.00000000E+00
  0.00000000E+00  5.36338891E-01  0.00000000E+00  0.00000000E+00  0.00000000E+00
  2.73231529E-01  0.00000000E+00  0.00000000E+00  0.00000000E+00  0.00000000E+00
  0.00000000E+00  0.00000000E+00 -4.70139145E-02  2.35233959E-01  1.47373908E-01
 -2.35233959E-01 -1.47373908E-01 -1.00632657E-01  2.04424125E-01  0.00000000E+00
  0.00000000E+00  5.39792240E-01  4.57148799E-01  0.00000000E+00  0.00000000E+00
  3.42585488E-01  3.90441480E-04  5.74495442E-03 -5.96225367E-02  0.00000000E+00
  0.00000000E+00  0.00000000E+00 -1.48549563E-01 -9.88743594E-02 -1.48549563E-01
 -9.88743594E-02  0.00000000E+00  0.00000000E+00  6.44626061E-01  0.00000000E+00
  0.00000000E+00  0.00000000E+00  5.05614280E-01  0.00000000E+00  0.00000000E+00
  0.00000000E+00  0.00000000E+00  0.00000000E+00  0.00000000E+00 -4.34513364E-02
  0.00000000E+00  0.00000000E+00  0.00000000E+00  0.00000000E+00  0.00000000E+00
 -9.74524126E-02  1.01990782E-01  0.00000000E+00  0.00000000E+00 -2.69094516E-01
  1.35877771E+00  0.00000000E+00  0.00000000E+00 -5.06488977E-01 -6.53226842E-02
 -4.76775560E-02 -2.63532770E-02  0.00000000E+00  0.00000000E+00  0.00000000E+00
 -6.42619142E-02 -1.01205448E+00 -6.42619142E-02 -1.01205448E+00  0.00000000E+00
  0.00000000E+00  0.00000000E+00 -3.91876093E-01  0.00000000E+00  0.00000000E+00
  0.00000000E+00 -7.63025484E-01  0.00000000E+00  0.00000000E+00  0.00000000E+00
  0.00000000E+00  0.00000000E+00  0.00000000E+00  1.99188926E-02  1.01960280E-01
  1.49540852E+00 -1.01960280E-01 -1.49540852E+00  0.00000000E+00  0.00000000E+00
  0.00000000E+00 -4.97649211E-02  0.00000000E+00  0.00000000E+00  0.00000000E+00
 -6.58797728E-01  0.00000000E+00  0.00000000E+00  0.00000000E+00  0.00000000E+00
  0.00000000E+00  0.00000000E+00 -1.69923939E-01  8.29422743E-01 -5.18492252E-01
 -8.29422743E-01  5.18492252E-01 -9.21688889E-03 -6.17427883E-01  0.00000000E+00
  0.00000000E+00 -8.44898753E-01  1.03939888E+00  0.00000000E+00  0.00000000E+00
  9.46545784E-01 -2.05616290E-01 -2.21614088E-01 -2.51799625E-01  0.00000000E+00
  0.00000000E+00  0.00000000E+00  4.43938616E-02  1.38852511E-02  4.43938616E-02
  1.38852511E-02  0.00000000E+00  0.00000000E+00 -9.59371426E-01  0.00000000E+00
  0.00000000E+00  0.00000000E+00  1.03861460E+00  0.00000000E+00  0.00000000E+00
  0.00000000E+00  0.00000000E+00  0.00000000E+00  0.00000000E+00 -1.82709295E-02
  0.00000000E+00  0.00000000E+00  0.00000000E+00  0.00000000E+00  0.00000000E+00
  2.25830862E-02 -9.05042823E-01  0.00000000E+00  0.00000000E+00  4.49920822E-01
  1.53541822E+00  0.00000000E+00  0.00000000E+00 -4.53002323E-02 -4.02529548E-01
 -1.08628221E-01 -1.59396572E-01  0.00000000E+00  0.00000000E+00  0.00000000E+00
  7.75375756E-01 -7.28292591E-01  7.75375756E-01 -7.28292591E-01  0.00000000E+00
  0.00000000E+00  0.00000000E+00 -1.00472565E+00  0.00000000E+00  0.00000000E+00
  0.00000000E+00  1.54958422E+00  0.00000000E+00  0.00000000E+00  0.00000000E+00
  0.00000000E+00  0.00000000E+00  0.00000000E+00 -6.08130259E-02  1.53333630E-01
 -1.14000099E+00 -1.53333630E-01  1.14000099E+00 -9.24396973E-02 -1.31390806E+00
  0.00000000E+00  0.00000000E+00  2.88816150E-01  3.59209698E+00  0.00000000E+00
  0.00000000E+00 -1.29681013E+00 -8.99866096E-02 -5.99071460E-01 -4.67245440E-01
  0.00000000E+00  0.00000000E+00  0.00000000E+00 -5.60956462E-01 -7.37216849E-01
 -5.60956462E-01 -7.37216849E-01  2.30970003E-03  4.53587259E-02  0.00000000E+00
  0.00000000E+00  1.84442015E-03 -1.23035844E-01  0.00000000E+00  0.00000000E+00
  9.19913008E-02 -6.00225289E-02 -8.18231954E-01  9.05086072E-01  0.00000000E+00
  0.00000000E+00  0.00000000E+00  2.08574566E-02  3.25154774E-02  2.08574566E-02
  3.25154774E-02  0.00000000E+00  0.00000000E+00  0.00000000E+00  0.00000000E+00
  0.00000000E+00  0.00000000E+00  0.00000000E+00  0.00000000E+00  0.00000000E+00
  0.00000000E+00  0.00000000E+00  0.00000000E+00  1.00000000E+00  0.00000000E+00
  0.00000000E+00  0.00000000E+00  0.00000000E+00  0.00000000E+00  0.00000000E+00
  0.00000000E+00  0.00000000E+00  1.04929194E-02  0.00000000E+00  0.00000000E+00
  0.00000000E+00  4.09916341E-02  0.00000000E+00  0.00000000E+00  0.00000000E+00
  0.00000000E+00  0.00000000E+00  0.00000000E+00  9.98888459E-01  0.00000000E+00
  0.00000000E+00  0.00000000E+00  0.00000000E+00  0.00000000E+00 -7.01664061E-02
 -5.58476645E-01  0.00000000E+00  0.00000000E+00 -2.22202544E-03  2.04194131E+00
  0.00000000E+00  0.00000000E+00 -1.06874040E+00 -1.22823447E+00  4.68438404E-01
  4.02405688E-01  0.00000000E+00  0.00000000E+00  0.00000000E+00 -1.04478618E+00
 -2.46972581E-01 -1.04478618E+00 -2.46972581E-01  0.00000000E+00  0.00000000E+00
  0.00000000E+00 -5.70531759E-02  0.00000000E+00  0.00000000E+00  0.00000000E+00
 -7.76430551E-01  0.00000000E+00  0.00000000E+00  0.00000000E+00  0.00000000E+00
  0.00000000E+00  0.00000000E+00  1.34822604E+00  1.01018022E+00 -5.46645685E-02
 -1.01018022E+00  5.46645685E-02 -4.70914980E-01  2.65778211E-01  0.00000000E+00
  0.00000000E+00  1.42792900E-01  3.76786221E+00  0.00000000E+00  0.00000000E+00
 -3.68398995E-01 -1.57510667E+00 -1.55676255E+00 -1.56253824E+00  0.00000000E+00
  0.00000000E+00  0.00000000E+00  1.43969288E-01 -5.76195995E-01  1.43969288E-01
 -5.76195995E-01
ONIOM Charges                              I   N=          16
           0           0           0           0           0           0
           0           0           0           0           0           0
           0           0           0           0
ONIOM Multiplicities                       I   N=          16
           1           0           0           0           0           0
           0           0           0           0           0           0
           0           0           0           0
Atom Layers                                I   N=           3
           1           1           1
Atom Modifiers                             I   N=           3
           0           0           0
Force Field                                I                0
Int Atom Modified Types                    I   N=           3
           0           0           0
Link Atoms                                 I   N=           3
           0           0           0
Atom Modified MM Charges                   R   N=           3
  0.00000000E+00  0.00000000E+00  0.00000000E+00
Link Distances                             R   N=          12
  0.00000000E+00  0.00000000E+00  0.00000000E+00  0.00000000E+00  0.00000000E+00
  0.00000000E+00  0.00000000E+00  0.00000000E+00  0.00000000E+00  0.00000000E+00
  0.00000000E+00  0.00000000E+00
Cartesian Gradient                         R   N=           9
  0.00000000E+00  0.00000000E+00  0.00000000E+00  0.00000000E+00  0.00000000E+00
  0.00000000E+00  0.00000000E+00  0.00000000E+00  0.00000000E+00
