Water                                                                   
SP        RMP2-FC                                                     STO-3G              
Number of atoms                            I                3
Info1-9                                    I   N=           9
          12          12           0           0           0         110
           1           2           1
Charge                                     I                0
Multiplicity                               I                1
Number of electrons                        I               10
Number of alpha electrons                  I                5
Number of beta electrons                   I                5
Number of basis functions                  I                7
Number of independent functions            I                7
Number of point charges in /Mol/           I                0
Number of translation vectors              I                0
Atomic numbers                             I   N=           3
           8           1           1
Nuclear charges                            R   N=           3
  8.00000000E+00  1.00000000E+00  1.00000000E+00
Current cartesian coordinates              R   N=           9
 -2.46519033E-32  1.38777878E-17  2.25178584E-01  1.47911420E-31  1.49411037E+00
 -9.00714337E-01 -1.82975748E-16 -1.49411037E+00 -9.00714337E-01
Force Field                                I                0
Int Atom Types                             I   N=           3
           0           0           0
MM charges                                 R   N=           3
  0.00000000E+00  0.00000000E+00  0.00000000E+00
Integer atomic weights                     I   N=           3
          16           1           1
Real atomic weights                        R   N=           3
  1.59949146E+01  1.00782504E+00  1.00782504E+00
Atom fragment info                         I   N=           3
           0           0           0
Atom residue num                           I   N=           3
           0           0           0
Nuclear spins                              I   N=           3
           0           1           1
Nuclear ZEff                               R   N=           3
 -5.60000000E+00 -1.00000000E+00 -1.00000000E+00
Nuclear QMom                               R   N=           3
  0.00000000E+00  0.00000000E+00  0.00000000E+00
Nuclear GFac                               R   N=           3
  0.00000000E+00  2.79284600E+00  2.79284600E+00
MicOpt                                     I   N=           3
          -1          -1          -1
Number of contracted shells                I                4
Number of primitive shells                 I               12
Pure/Cartesian d shells                    I                0
Pure/Cartesian f shells                    I                0
Highest angular momentum                   I                1
Largest degree of contraction              I                3
Shell types                                I   N=           4
           0          -1           0           0
Number of primitives per shell             I   N=           4
           3           3           3           3
Shell to atom map                          I   N=           4
           1           1           2           3
Primitive exponents                        R   N=          12
  1.30709321E+02  2.38088661E+01  6.44360831E+00  5.03315132E+00  1.16959612E+00
  3.80388960E-01  3.42525091E+00  6.23913730E-01  1.68855404E-01  3.42525091E+00
  6.23913730E-01  1.68855404E-01
Contraction coefficients                   R   N=          12
  1.54328967E-01  5.35328142E-01  4.44634542E-01 -9.99672292E-02  3.99512826E-01
  7.00115469E-01  1.54328967E-01  5.35328142E-01  4.44634542E-01  1.54328967E-01
  5.35328142E-01  4.44634542E-01
P(S=P) Contraction coefficients            R   N=          12
  0.00000000E+00  0.00000000E+00  0.00000000E+00  1.55916275E-01  6.07683719E-01
  3.91957393E-01  0.00000000E+00  0.00000000E+00  0.00000000E+00  0.00000000E+00
  0.00000000E+00  0.00000000E+00
Coordinates of each shell                  R   N=          12
 -9.02050610E-33  0.00000000E+00  2.25178584E-01 -9.02050610E-33  0.00000000E+00
  2.25178584E-01  1.54906638E-31  1.49411037E+00 -9.00714337E-01 -1.82975748E-16
 -1.49411037E+00 -9.00714337E-01
Constraint Structure                       R   N=           9
 -9.02050610E-33  0.00000000E+00  2.25178584E-01  1.54906638E-31  1.49411037E+00
 -9.00714337E-01 -1.82975748E-16 -1.49411037E+00 -9.00714337E-01
Num ILSW                                   I              100
ILSW                                       I   N=         100
           0           0           0           0           2           0
           0           0           0           0           0          -1
           0           0           0           0           0           0
           0           0           0           0           0           0
           1           0           0           0           0           0
           0           0      100000           0          -1           0
           0           0           0           0           0           0
           0           0           0           1           0           0
           0           0           1           0           0           0
           0           0           4          40           0           0
           0           0           0           0           0           0
           0           0           0           0           0           0
           0           0           0           0           0           0
           0           0           0           0           0           0
           0           0           0           0           0           0
           0           0           0           0           0           0
           0           0           0           0
Num RLSW                                   I               40
RLSW                                       R   N=          40
  1.00000000E+00  1.00000000E+00  1.00000000E+00  1.00000000E+00  1.00000000E+00
  0.00000000E+00  0.00000000E+00  1.00000000E+00  0.00000000E+00  0.00000000E+00
  0.00000000E+00  0.00000000E+00  1.00000000E+00  0.00000000E+00  0.00000000E+00
  0.00000000E+00  0.00000000E+00  1.00000000E+00  0.00000000E+00  0.00000000E+00
  0.00000000E+00  0.00000000E+00  1.00000000E+00  0.00000000E+00  0.00000000E+00
  0.00000000E+00  0.00000000E+00  1.00000000E+00  0.00000000E+00  0.00000000E+00
  0.00000000E+00  0.00000000E+00  0.00000000E+00  0.00000000E+00  0.00000000E+00
  0.00000000E+00  0.00000000E+00  0.00000000E+00  1.00000000E+00  1.00000000E+00
MxBond                                     I                2
NBond                                      I   N=           3
           2           1           1
IBond                                      I   N=           6
           2           3           1           0           1           0
RBond                                      R   N=           6
  1.00000000E+00  1.00000000E+00  1.00000000E+00  0.00000000E+00  1.00000000E+00
  0.00000000E+00
Virial Ratio                               R      2.006004929733181E+00
SCF Energy                                 R     -7.496432879130536E+01
MP2 Energy                                 R     -7.500228212778517E+01
Total Energy                               R     -7.500228212778517E+01
Post-SCF wavefunction norm                 R      1.007309533709901E+00
RMS Density                                R      2.882745380908822E-10
External E-field                           R   N=          35
  0.00000000E+00  0.00000000E+00  0.00000000E+00  0.00000000E+00  0.00000000E+00
  0.00000000E+00  0.00000000E+00  0.00000000E+00  0.00000000E+00  0.00000000E+00
  0.00000000E+00  0.00000000E+00  0.00000000E+00  0.00000000E+00  0.00000000E+00
  0.00000000E+00  0.00000000E+00  0.00000000E+00  0.00000000E+00  0.00000000E+00
  0.00000000E+00  0.00000000E+00  0.00000000E+00  0.00000000E+00  0.00000000E+00
  0.00000000E+00  0.00000000E+00  0.00000000E+00  0.00000000E+00  0.00000000E+00
  0.00000000E+00  0.00000000E+00  0.00000000E+00  0.00000000E+00  0.00000000E+00
IOpCl                                      I                0
IROHF                                      I                0
Alpha Orbital Energies                     R   N=           7
 -2.02437548E+01 -1.25064474E+00 -6.03166234E-01 -4.45469869E-01 -3.88214643E-01
  5.70748219E-01  7.08591547E-01
Alpha MO coefficients                      R   N=          49
  9.94202990E-01  2.59157123E-02  0.00000000E+00  0.00000000E+00 -3.99311319E-03
 -5.62726388E-03 -5.62726388E-03 -2.34217947E-01  8.45881886E-01  0.00000000E+00
  0.00000000E+00 -1.17047746E-01  1.56449280E-01  1.56449280E-01  0.00000000E+00
  0.00000000E+00  0.00000000E+00  6.03305187E-01  0.00000000E+00  4.46376722E-01
 -4.46376722E-01 -1.00458170E-01  5.21395177E-01  0.00000000E+00  0.00000000E+00
  7.74266754E-01 -2.89064164E-01 -2.89064164E-01  0.00000000E+00  0.00000000E+00
  1.00000000E+00  0.00000000E+00  0.00000000E+00  0.00000000E+00  0.00000000E+00
 -1.28350477E-01  8.32525355E-01  0.00000000E+00  0.00000000E+00 -7.32626229E-01
 -7.75800553E-01 -7.75800553E-01  0.00000000E+00  0.00000000E+00  0.00000000E+00
  9.76484495E-01  0.00000000E+00 -8.08915578E-01  8.08915578E-01
Total SCF Density                          R   N=          28
  2.10677895E+00 -4.49467291E-01  1.97608144E+00  4.01850946E-33 -2.25259403E-32
  2.00000000E+00  0.00000000E+00  0.00000000E+00  1.04770589E-31  7.27954297E-01
 -1.08673406E-01  6.09173798E-01 -1.87098464E-31  3.77373431E-48  1.22641025E+00
 -2.63980298E-02 -3.70497675E-02  4.31408308E-32  5.38602783E-01 -4.84204674E-01
  6.14636624E-01 -2.63980298E-02 -3.70497675E-02 -9.24446373E-33 -5.38602783E-01
 -4.84204674E-01 -1.82372087E-01  6.14636624E-01
Total MP2 Density                          R   N=          28
  2.10753003E+00 -4.54102227E-01  2.00352083E+00 -1.06288038E-19  6.89420781E-19
  1.99897607E+00  7.08810750E-19 -3.64972801E-18 -7.37602264E-19  7.35132525E-01
 -1.07729998E-01  6.03807333E-01 -6.06693530E-19 -2.69675515E-19  1.20617907E+00
 -2.22662987E-02 -5.96356887E-02 -3.14199665E-20  5.22931000E-01 -4.80694830E-01
  6.38274666E-01 -2.22662987E-02 -5.96356887E-02 -1.25347309E-18 -5.22931000E-01
 -4.80694830E-01 -1.75154634E-01  6.38274666E-01
QEq coupling tensors                       R   N=          18
  2.70886354E+00  1.14632390E-16 -2.30882790E+00  1.05353917E-16  5.55111512E-17
 -4.00035638E-01  2.32130518E-01  3.30910866E-18 -2.20997468E-01  2.29488741E-18
  2.73044563E-01 -1.11330500E-02  2.32130518E-01 -1.09024656E-16 -2.20997468E-01
 -7.71655094E-17 -2.73044563E-01 -1.11330500E-02
Mulliken Charges                           R   N=           3
 -3.19888662E-01  1.59944331E-01  1.59944331E-01
ONIOM Charges                              I   N=          16
           0           0           0           0           0           0
           0           0           0           0           0           0
           0           0           0           0
ONIOM Multiplicities                       I   N=          16
           1           0           0           0           0           0
           0           0           0           0           0           0
           0           0           0           0
Atom Layers                                I   N=           3
           1           1           1
Atom Modifiers                             I   N=           3
           0           0           0
Force Field                                I                0
Int Atom Modified Types                    I   N=           3
           0           0           0
Link Atoms                                 I   N=           3
           0           0           0
Atom Modified MM Charges                   R   N=           3
  0.00000000E+00  0.00000000E+00  0.00000000E+00
Link Distances                             R   N=          12
  0.00000000E+00  0.00000000E+00  0.00000000E+00  0.00000000E+00  0.00000000E+00
  0.00000000E+00  0.00000000E+00  0.00000000E+00  0.00000000E+00  0.00000000E+00
  0.00000000E+00  0.00000000E+00
Cartesian Gradient                         R   N=           9
  0.00000000E+00  0.00000000E+00  0.00000000E+00  0.00000000E+00  0.00000000E+00
  0.00000000E+00  0.00000000E+00  0.00000000E+00  0.00000000E+00
Dipole Moment                              R   N=           3
 -3.47894332E-17  5.55111512E-17 -6.29265630E-01
Quadrupole Moment                          R   N=           6
 -5.99929333E-01  6.95324595E-01 -9.53952612E-02  5.16541684E-17  3.47608359E-17
  0.00000000E+00
