    nwchem, len=6
C_bigbasis.nw, len=13
 argument  1 = C_bigbasis.nw
                                         
                                         


              Northwest Computational Chemistry Package (NWChem) 6.0
              ------------------------------------------------------


                    Environmental Molecular Sciences Laboratory
                       Pacific Northwest National Laboratory
                                Richland, WA 99352

                              Copyright (c) 1994-2010
                       Pacific Northwest National Laboratory
                            Battelle Memorial Institute

             NWChem is an open-source computational chemistry package
                        distributed under the terms of the
                      Educational Community License (ECL) 2.0
             A copy of the license is included with this distribution
                              in the LICENSE.TXT file

                                  ACKNOWLEDGMENT
                                  --------------

            This software and its documentation were developed at the
            EMSL at Pacific Northwest National Laboratory, a multiprogram
            national laboratory, operated for the U.S. Department of Energy
            by Battelle under Contract Number DE-AC05-76RL01830. Support
            for this work was provided by the Department of Energy Office
            of Biological and Environmental Research, Office of Basic
            Energy Sciences, and the Office of Advanced Scientific Computing.


           Job information
           ---------------

    hostname      = silenziosa
    program       = nwchem
    date          = Tue Mar 25 23:49:40 2014

    compiled      = Thu_May_05_12:06:54_2011
    source        = /build/buildd/nwchem-6.0
    nwchem branch = 6.0
    input         = C_bigbasis.nw
    prefix        = carbon.
    data base     = ./carbon.db
    status        = startup
    nproc         =        1
    time left     =     -1s



           Memory information
           ------------------

    heap     =   13107201 doubles =    100.0 Mbytes
    stack    =   13107201 doubles =    100.0 Mbytes
    global   =   26214400 doubles =    200.0 Mbytes (distinct from heap & stack)
    total    =   52428802 doubles =    400.0 Mbytes
    verify   = yes
    hardfail = no 


           Directory information
           ---------------------

  0 permanent = .
  0 scratch   = .




                                NWChem Input Module
                                -------------------


                                      C atom
                                      ------

 Scaling coordinates for geometry "geometry" by  1.889725989
 (inverse scale =  0.529177249)



                             Geometry "geometry" -> ""
                             -------------------------

 Output coordinates in angstroms (scale by  1.889725989 to convert to a.u.)

  No.       Tag          Charge          X              Y              Z
 ---- ---------------- ---------- -------------- -------------- --------------
    1 C                    6.0000     0.00000000    -0.00000000     0.00000000

      Atomic Mass 
      ----------- 

      C                 12.000000


 Effective nuclear repulsion energy (a.u.)       0.0000000000

            Nuclear Dipole moment (a.u.) 
            ----------------------------
        X                 Y               Z
 ---------------- ---------------- ----------------
     0.0000000000    -0.0000000000     0.0000000000


            XYZ format geometry
            -------------------
     1
 geometry
 C                     0.00000000    -0.00000000     0.00000000



 Summary of "ao basis" -> "" (cartesian)
 ------------------------------------------------------------------------------
       Tag                 Description            Shells   Functions and Types
 ---------------- ------------------------------  ------  ---------------------
 *                        aug-cc-pCVQZ                on all atoms 


                      Basis "ao basis" -> "ao basis" (cartesian)
                      -----
  C (Carbon)
  ----------
            Exponent  Coefficients 
       -------------- ---------------------------------------------------------
  1 S  3.39800000E+04  0.000091
  1 S  5.08900000E+03  0.000704
  1 S  1.15700000E+03  0.003693
  1 S  3.26600000E+02  0.015360
  1 S  1.06100000E+02  0.052929
  1 S  3.81100000E+01  0.147043
  1 S  1.47500000E+01  0.305631
  1 S  6.03500000E+00  0.399345
  1 S  2.53000000E+00  0.217051

  2 S  3.39800000E+04 -0.000019
  2 S  5.08900000E+03 -0.000151
  2 S  1.15700000E+03 -0.000785
  2 S  3.26600000E+02 -0.003324
  2 S  1.06100000E+02 -0.011512
  2 S  3.81100000E+01 -0.034160
  2 S  1.47500000E+01 -0.077173
  2 S  6.03500000E+00 -0.141493
  2 S  2.53000000E+00 -0.118019

  3 S  7.35500000E-01  1.000000

  4 S  2.90500000E-01  1.000000

  5 S  1.11100000E-01  1.000000

  6 S  7.21600000E+00  1.000000

  7 S  1.95700000E+01  1.000000

  8 S  5.30730000E+01  1.000000

  9 S  4.14500000E-02  1.000000

 10 P  3.45100000E+01  0.005378
 10 P  7.91500000E+00  0.036132
 10 P  2.36800000E+00  0.142493

 11 P  8.13200000E-01  1.000000

 12 P  2.89000000E-01  1.000000

 13 P  1.00700000E-01  1.000000

 14 P  8.18200000E+00  1.000000

 15 P  2.41860000E+01  1.000000

 16 P  7.14940000E+01  1.000000

 17 P  3.21800000E-02  1.000000

 18 D  1.84800000E+00  1.000000

 19 D  6.49000000E-01  1.000000

 20 D  2.28000000E-01  1.000000

 21 D  8.65600000E+00  1.000000

 22 D  3.32130000E+01  1.000000

 23 D  7.66000000E-02  1.000000

 24 F  1.41900000E+00  1.000000

 25 F  4.85000000E-01  1.000000

 26 F  2.46940000E+01  1.000000

 27 F  1.87000000E-01  1.000000

 28 G  1.01100000E+00  1.000000

 29 G  4.24000000E-01  1.000000



 Summary of "ao basis" -> "ao basis" (cartesian)
 ------------------------------------------------------------------------------
       Tag                 Description            Shells   Functions and Types
 ---------------- ------------------------------  ------  ---------------------
 C                        aug-cc-pCVQZ              29      139   9s8p6d4f2g


                                 NWChem SCF Module
                                 -----------------


                                      C atom



  ao basis        = "ao basis"
  functions       =   139
  atoms           =     1
  closed shells   =     3
  open shells     =     0
  charge          =   0.00
  wavefunction    = RHF 
  input vectors   = atomic
  output vectors  = ./carbon.movecs
  use symmetry    = F
  symmetry adapt  = F


 Summary of "ao basis" -> "ao basis" (cartesian)
 ------------------------------------------------------------------------------
       Tag                 Description            Shells   Functions and Types
 ---------------- ------------------------------  ------  ---------------------
 C                        aug-cc-pCVQZ              29      139   9s8p6d4f2g



 Forming initial guess at       0.4s


 !! The overlap matrix has   1 vectors deemed linearly dependent with
    eigenvalues:
 1.80D-07


      Superposition of Atomic Density Guess
      -------------------------------------

 Sum of atomic energies:         -37.67213751

      Non-variational initial energy
      ------------------------------

 Total energy =     -37.316043
 1-e energy   =     -50.422650
 2-e energy   =      13.106606
 HOMO         =      -0.079275
 LUMO         =      -0.079275


 Starting SCF solution at       3.9s



 ----------------------------------------------
         Quadratically convergent ROHF

 Convergence threshold     :          1.000E-04
 Maximum no. of iterations :           30
 Final Fock-matrix accuracy:          1.000E-10
 ----------------------------------------------


 Integral file          = ./carbon.aoints.0
 Record size in doubles =  65536        No. of integs per rec  =  43688
 Max. records in memory =      0        Max. records in file   =  43591
 No. of bits per label  =      8        No. of bits per value  =     64


 #quartets = 9.483D+04 #integrals = 6.832D+06 #direct =  0.0% #cached =100.0%


              iter       energy          gnorm     gmax       time
             ----- ------------------- --------- --------- --------
                 1      -37.5688728542  4.94D-01  2.18D-01      6.5
                 2      -37.6026917405  1.47D-01  6.15D-02      6.7
                 3      -37.6046742816  3.02D-03  1.17D-03      7.3
                 4      -37.6046750729  9.28D-06  3.76D-06      8.0


       Final RHF  results 
       ------------------ 

         Total SCF energy =    -37.604675072922
      One-electron energy =    -50.312118093232
      Two-electron energy =     12.707443020310
 Nuclear repulsion energy =      0.000000000000

        Time for solution =      4.7s


             Final eigenvalues
             -----------------

              1      
    1  -11.3647
    2   -0.7255
    3   -0.3584
    4    0.0186
    5    0.0186
    6    0.0487
    7    0.0793
    8    0.0949
    9    0.0949
   10    0.2084
   11    0.2191
   12    0.2191
   13    0.2275

                       ROHF Final Molecular Orbital Analysis
                       -------------------------------------

 Vector    2  Occ=2.000000D+00  E=-7.255055D-01
              MO Center=  4.9D-01, -1.2D-01, -4.0D-03, r^2=-2.5D-01
   Bfn.  Coefficient  Atom+Function         Bfn.  Coefficient  Atom+Function  
  ----- ------------  ---------------      ----- ------------  ---------------
     3      0.353113  1 C  s                  5      0.229334  1 C  s          
     4      0.214767  1 C  s          

 Vector    3  Occ=2.000000D+00  E=-3.584161D-01
              MO Center=  4.6D-15,  2.3D-15,  2.2D-15, r^2= 9.4D-11
   Bfn.  Coefficient  Atom+Function         Bfn.  Coefficient  Atom+Function  
  ----- ------------  ---------------      ----- ------------  ---------------
    16      0.358323  1 C  px                13      0.328661  1 C  px         
    19      0.227283  1 C  px                10      0.166243  1 C  px         

 Vector    4  Occ=0.000000D+00  E= 1.856486D-02
              MO Center=  2.2D-14,  3.1D-13,  1.2D-14, r^2=-3.0D-08
   Bfn.  Coefficient  Atom+Function         Bfn.  Coefficient  Atom+Function  
  ----- ------------  ---------------      ----- ------------  ---------------
    32      0.596998  1 C  py                14      0.272074  1 C  py         
   108      0.219344  1 C  fyzz             106      0.217392  1 C  fyyy       
   101      0.190376  1 C  fxxy              20     -0.166985  1 C  py         

 Vector    5  Occ=0.000000D+00  E= 1.856486D-02
              MO Center= -1.4D-14,  5.9D-15, -1.7D-13, r^2=-6.0D+00
   Bfn.  Coefficient  Atom+Function         Bfn.  Coefficient  Atom+Function  
  ----- ------------  ---------------      ----- ------------  ---------------
    33      0.614498  1 C  pz                15      0.280050  1 C  pz         
   109      0.225776  1 C  fzzz             107      0.223767  1 C  fyyz       
   102      0.191929  1 C  fxxz              21     -0.171880  1 C  pz         

 Vector    6  Occ=0.000000D+00  E= 4.872234D-02
              MO Center= -2.0D-15, -1.2D-13, -5.7D-14, r^2=-2.2D-05
   Bfn.  Coefficient  Atom+Function         Bfn.  Coefficient  Atom+Function  
  ----- ------------  ---------------      ----- ------------  ---------------
     9      7.558450  1 C  s                 64     -2.232670  1 C  dxx        
    67     -2.175335  1 C  dyy               69     -2.171712  1 C  dzz        
    51     -1.301047  1 C  dzz               49     -1.298459  1 C  dyy        
    46     -1.257496  1 C  dxx                4     -0.823728  1 C  s          
     5      0.741652  1 C  s                  2      0.727276  1 C  s          

 Vector    7  Occ=0.000000D+00  E= 7.933894D-02
              MO Center= -2.3D-01, -9.6D-01, -1.5D-02, r^2=-9.8D-01
   Bfn.  Coefficient  Atom+Function         Bfn.  Coefficient  Atom+Function  
  ----- ------------  ---------------      ----- ------------  ---------------
    19      2.509036  1 C  px                31     -1.529472  1 C  px         
   105     -1.081735  1 C  fxzz             103     -1.079528  1 C  fxyy       
   100     -1.069356  1 C  fxxx              16      0.876594  1 C  px         
    20     -0.611980  1 C  py                80     -0.606622  1 C  fxxx       
    83     -0.599796  1 C  fxyy              85     -0.598315  1 C  fxzz       

 Vector    8  Occ=0.000000D+00  E= 9.494963D-02
              MO Center= -1.4D-01, -5.9D-01, -9.3D-03, r^2=-3.6D-01
   Bfn.  Coefficient  Atom+Function         Bfn.  Coefficient  Atom+Function  
  ----- ------------  ---------------      ----- ------------  ---------------
    20      3.037114  1 C  py                32     -1.468697  1 C  py         
   101     -1.221840  1 C  fxxy             106     -1.215198  1 C  fyyy       
   108     -1.214718  1 C  fyzz              17      1.091626  1 C  py         
    19      0.741180  1 C  px                81     -0.679972  1 C  fxxy       
    86     -0.668266  1 C  fyyy              88     -0.667420  1 C  fyzz       

 Vector    9  Occ=0.000000D+00  E= 9.494963D-02
              MO Center= -1.2D-14, -2.0D-14, -1.2D-13, r^2= 3.8D-04
   Bfn.  Coefficient  Atom+Function         Bfn.  Coefficient  Atom+Function  
  ----- ------------  ---------------      ----- ------------  ---------------
    21      3.126145  1 C  pz                33     -1.511751  1 C  pz         
   102     -1.258648  1 C  fxxz             107     -1.250820  1 C  fyyz       
   109     -1.250326  1 C  fzzz              18      1.123626  1 C  pz         
    82     -0.701650  1 C  fxxz              87     -0.687855  1 C  fyyz       
    89     -0.686984  1 C  fzzz              15     -0.335345  1 C  pz         

 Vector   10  Occ=0.000000D+00  E= 2.084002D-01
              MO Center= -3.4D-15,  6.2D-14,  2.2D-16, r^2= 5.5D+00
   Bfn.  Coefficient  Atom+Function         Bfn.  Coefficient  Atom+Function  
  ----- ------------  ---------------      ----- ------------  ---------------
     9     10.721876  1 C  s                  5      5.773356  1 C  s          
    69     -4.473272  1 C  dzz               67     -4.440785  1 C  dyy        
    64     -3.926544  1 C  dxx               46     -3.380040  1 C  dxx        
    49     -3.001375  1 C  dyy               51     -2.977453  1 C  dzz        
     2      1.877138  1 C  s                  4     -1.846280  1 C  s          

 Vector   11  Occ=0.000000D+00  E= 2.190632D-01
              MO Center= -5.2D-15,  2.6D-14, -3.1D-14, r^2=-2.6D+00
   Bfn.  Coefficient  Atom+Function         Bfn.  Coefficient  Atom+Function  
  ----- ------------  ---------------      ----- ------------  ---------------
    69      1.093908  1 C  dzz               67     -1.032529  1 C  dyy        
    51     -0.903962  1 C  dzz               49      0.853255  1 C  dyy        
    65     -0.503697  1 C  dxy              139      0.489583  1 C  gzzzz      
   128     -0.479620  1 C  gxxyy            135     -0.461294  1 C  gyyyy      
   130      0.448506  1 C  gxxzz             45     -0.444394  1 C  dzz        

 Vector   12  Occ=0.000000D+00  E= 2.190632D-01
              MO Center=  1.8D-14, -2.0D-15, -4.6D-15, r^2=-2.5D-09
   Bfn.  Coefficient  Atom+Function         Bfn.  Coefficient  Atom+Function  
  ----- ------------  ---------------      ----- ------------  ---------------
    68      2.125555  1 C  dyz               50     -1.756488  1 C  dyz        
   138      0.951249  1 C  gyzzz            136      0.949672  1 C  gyyyz      
   129      0.927878  1 C  gxxyz             44     -0.863713  1 C  dyz        
   114      0.637318  1 C  gxxyz            121      0.633658  1 C  gyyyz      
   123      0.633393  1 C  gyzzz             66      0.518414  1 C  dxz        

 Vector   13  Occ=0.000000D+00  E= 2.275119D-01
              MO Center=  2.6D-08, -4.2D-09, -2.0D-08, r^2= 8.4D-15
   Bfn.  Coefficient  Atom+Function         Bfn.  Coefficient  Atom+Function  
  ----- ------------  ---------------      ----- ------------  ---------------
    65      1.948714  1 C  dxy               47     -1.641514  1 C  dxy        
   133      0.898626  1 C  gxyzz            131      0.894111  1 C  gxyyy      
   126      0.877388  1 C  gxxxy             41     -0.804755  1 C  dxy        
   111      0.594817  1 C  gxxxy            116      0.592168  1 C  gxyyy      
   118      0.591452  1 C  gxyzz             64      0.505663  1 C  dxx        

 Vector   14  Occ=0.000000D+00  E= 2.275119D-01
              MO Center= -1.0D-04,  3.9D-04, -2.4D-02, r^2=-5.9D-04
   Bfn.  Coefficient  Atom+Function         Bfn.  Coefficient  Atom+Function  
  ----- ------------  ---------------      ----- ------------  ---------------
    66      2.132722  1 C  dxz               48     -1.796514  1 C  dxz        
   134      0.983484  1 C  gxzzz            132      0.978743  1 C  gxyyz      
   127      0.956867  1 C  gxxxz             42     -0.880744  1 C  dxz        
   112      0.651517  1 C  gxxxz            117      0.648051  1 C  gxyyz      
   119      0.647299  1 C  gxzzz             68     -0.519927  1 C  dyz        

 Vector   15  Occ=0.000000D+00  E= 2.332086D-01
              MO Center= -8.5D-02, -3.5D-01, -5.5D-03, r^2=-1.3D-01
   Bfn.  Coefficient  Atom+Function         Bfn.  Coefficient  Atom+Function  
  ----- ------------  ---------------      ----- ------------  ---------------
     9      3.373292  1 C  s                 64     -2.497076  1 C  dxx        
     5      2.130085  1 C  s                 51     -1.588541  1 C  dzz        
    49     -1.500881  1 C  dyy               67     -0.886983  1 C  dyy        
    65      0.835144  1 C  dxy               69     -0.785249  1 C  dzz        
   137      0.737382  1 C  gyyzz             47     -0.719603  1 C  dxy        

 Vector   16  Occ=0.000000D+00  E= 3.083505D-01
              MO Center= -4.9D-15, -9.7D-15,  9.5D-15, r^2= 1.3D-08
   Bfn.  Coefficient  Atom+Function         Bfn.  Coefficient  Atom+Function  
  ----- ------------  ---------------      ----- ------------  ---------------
    19      7.511444  1 C  px               100     -3.521532  1 C  fxxx       
   103     -3.473918  1 C  fxyy             105     -3.463586  1 C  fxzz       
    16      2.053428  1 C  px                85     -1.855970  1 C  fxzz       
    83     -1.851940  1 C  fxyy              80     -1.833369  1 C  fxxx       
    20     -1.832120  1 C  py                13     -1.456552  1 C  px         

 Vector   17  Occ=0.000000D+00  E= 3.229714D-01
              MO Center= -7.8D-15, -3.5D-15, -4.1D-14, r^2=-4.2D-05
   Bfn.  Coefficient  Atom+Function         Bfn.  Coefficient  Atom+Function  
  ----- ------------  ---------------      ----- ------------  ---------------
    20      7.500557  1 C  py               101     -3.609521  1 C  fxxy       
   106     -3.569773  1 C  fyyy             108     -3.566901  1 C  fyzz       
    17      1.997293  1 C  py                88     -1.878019  1 C  fyzz       
    86     -1.876396  1 C  fyyy              81     -1.853936  1 C  fxxy       
    19      1.830447  1 C  px                14     -1.518793  1 C  py         

 Vector   18  Occ=0.000000D+00  E= 3.229714D-01
              MO Center=  9.3D-04, -3.8D-03,  2.3D-01, r^2=-5.1D-02
   Bfn.  Coefficient  Atom+Function         Bfn.  Coefficient  Atom+Function  
  ----- ------------  ---------------      ----- ------------  ---------------
    21      7.720433  1 C  pz               102     -3.721259  1 C  fxxz       
   107     -3.674416  1 C  fyyz             109     -3.671460  1 C  fzzz       
    18      2.055843  1 C  pz                89     -1.933074  1 C  fzzz       
    87     -1.931404  1 C  fyyz              82     -1.904935  1 C  fxxz       
    15     -1.563316  1 C  pz                33     -1.245058  1 C  pz         

 Vector   19  Occ=0.000000D+00  E= 5.365824D-01
              MO Center= -9.1D-15,  6.8D-15, -1.5D-13, r^2=-3.6D-07
   Bfn.  Coefficient  Atom+Function         Bfn.  Coefficient  Atom+Function  
  ----- ------------  ---------------      ----- ------------  ---------------
     5     22.628858  1 C  s                  9     10.506057  1 C  s          
    46     -7.836930  1 C  dxx               49     -7.377239  1 C  dyy        
    51     -7.348193  1 C  dzz               69     -5.462646  1 C  dzz        
    67     -5.454427  1 C  dyy               64     -5.324360  1 C  dxx        
     4     -4.873426  1 C  s                  2      4.408948  1 C  s          


------------------------------------------------------------
EAF file 0: "./carbon.aoints.0" size=82313216 bytes
------------------------------------------------------------
               write      read    awrite     aread      wait
               -----      ----    ------     -----      ----
     calls:      157         8         0      1248      1248
   data(b): 8.23e+07  4.19e+06  0.00e+00  6.54e+08
   time(s): 7.68e-02  1.40e-03  0.00e+00  1.42e-01  3.32e-04
rate(mb/s): 1.07e+03  3.00e+03  0.00e+00* 4.59e+03*
------------------------------------------------------------
* = Effective rate.  Full wait time used for read and write.


 center of mass
 --------------
 x =   0.00000000 y =  -0.00000000 z =   0.00000000

 moments of inertia (a.u.)
 ------------------
           0.000000000000           0.000000000000           0.000000000000
           0.000000000000           0.000000000000           0.000000000000
           0.000000000000           0.000000000000           0.000000000000

  Mulliken analysis of the total density
  --------------------------------------

    Atom       Charge   Shell Charges
 -----------   ------   -------------------------------------------------------
    1 C    6     6.00   1.94  0.06  0.60  0.33  0.40 -0.00 -0.01  0.00  0.01  0.18  0.57  0.69  0.34 -0.00 -0.00  0.00  0.02  0.07  0.45  0.06 -0.00  0.00 -0.00  0.01  0.11
  0.00  0.07 -0.02  0.12

       Multipole analysis of the density wrt the origin
       ------------------------------------------------

     L   x y z        total         open         nuclear
     -   - - -        -----         ----         -------
     0   0 0 0     -0.000000      0.000000      6.000000

     1   1 0 0      0.000000      0.000000      0.000000
     1   0 1 0      0.000000      0.000000     -0.000000
     1   0 0 1      0.000000      0.000000      0.000000

     2   2 0 0     -6.902064      0.000000      0.000000
     2   1 1 0      0.764080      0.000000     -0.000000
     2   1 0 1      0.025791      0.000000      0.000000
     2   0 2 0     -3.955808      0.000000      0.000000
     2   0 1 1     -0.006291      0.000000      0.000000
     2   0 0 2     -3.769653      0.000000      0.000000


 Parallel integral file used     157 records with       0 large values


 Task  times  cpu:        8.1s     wall:        9.5s
 Summary of allocated global arrays
-----------------------------------
  No active global arrays



                         GA Statistics for process    0
                         ------------------------------

       create   destroy   get      put      acc     scatter   gather  read&inc
calls:  175      175     7123     4916     4072        0        0        0     
number of processes/call 1.00e+00 1.00e+00 1.00e+00 0.00e+00 0.00e+00
bytes total:             3.54e+07 1.45e+07 2.87e+06 0.00e+00 0.00e+00 0.00e+00
bytes remote:            0.00e+00 0.00e+00 0.00e+00 0.00e+00 0.00e+00 0.00e+00
Max memory consumed for GA by this process: 2004944 bytes
MA_summarize_allocated_blocks: starting scan ...
MA_summarize_allocated_blocks: scan completed: 0 heap blocks, 0 stack blocks
MA usage statistics:

	allocation statistics:
					      heap	     stack
					      ----	     -----
	current number of blocks	         0	         0
	maximum number of blocks	        16	        14
	current total bytes		         0	         0
	maximum total bytes		     80096	  40075880
	maximum total K-bytes		        81	     40076
	maximum total M-bytes		         1	        41


                                NWChem Input Module
                                -------------------





                                     CITATION
                                     --------
                Please cite the following reference when publishing
                           results obtained with NWChem:

                 M. Valiev, E.J. Bylaska, N. Govind, K. Kowalski,
              T.P. Straatsma, H.J.J. van Dam, D. Wang, J. Nieplocha,
                        E. Apra, T.L. Windus, W.A. de Jong
                 "NWChem: a comprehensive and scalable open-source
                  solution for large scale molecular simulations"
                      Comput. Phys. Commun. 181, 1477 (2010)
                           doi:10.1016/j.cpc.2010.04.018

                              AUTHORS & CONTRIBUTORS
                              ----------------------
      E. J. Bylaska, W. A. de Jong, N. Govind, K. Kowalski, T. P. Straatsma,
     M. Valiev, H. J. J. van Dam, D. Wang, E. Apra, T. L. Windus, J. Hammond,
     J. Autschbach, P. Nichols, S. Hirata, M. T. Hackler, Y. Zhao, P.-D. Fan,
      R. J. Harrison, M. Dupuis, D. M. A. Smith, K. Glaesemann, J. Nieplocha,
      V. Tipparaju, M. Krishnan, A. Vazquez-Mayagoitia, L. Jensen, M. Swart,
      Q. Wu, T. Van Voorhis, A. A. Auer, M. Nooijen, L. D. Crosby, E. Brown,
             G. Cisneros, G. I. Fann, H. Fruchtl, J. Garza, K. Hirao,
        R. Kendall, J. A. Nichols, K. Tsemekhman, K. Wolinski, J. Anchell,
       D. Bernholdt, P. Borowski, T. Clark, D. Clerc, H. Dachsel, M. Deegan,
        K. Dyall, D. Elwood, E. Glendening, M. Gutowski, A. Hess, J. Jaffe,
        B. Johnson, J. Ju, R. Kobayashi, R. Kutteh, Z. Lin, R. Littlefield,
    X. Long, B. Meng, T. Nakajima, S. Niu, L. Pollack, M. Rosing, G. Sandrone,
       M. Stave, H. Taylor, G. Thomas, J. H. van Lenthe, A. Wong, Z. Zhang.

 Total times  cpu:        8.1s     wall:        9.7s
