    nwchem, len=6
dvb_un_sp_ks.nw, len=15
 argument  1 = dvb_un_sp_ks.nw
                                         
                                         


              Northwest Computational Chemistry Package (NWChem) 6.0
              ------------------------------------------------------


                    Environmental Molecular Sciences Laboratory
                       Pacific Northwest National Laboratory
                                Richland, WA 99352

                              Copyright (c) 1994-2010
                       Pacific Northwest National Laboratory
                            Battelle Memorial Institute

             NWChem is an open-source computational chemistry package
                        distributed under the terms of the
                      Educational Community License (ECL) 2.0
             A copy of the license is included with this distribution
                              in the LICENSE.TXT file

                                  ACKNOWLEDGMENT
                                  --------------

            This software and its documentation were developed at the
            EMSL at Pacific Northwest National Laboratory, a multiprogram
            national laboratory, operated for the U.S. Department of Energy
            by Battelle under Contract Number DE-AC05-76RL01830. Support
            for this work was provided by the Department of Energy Office
            of Biological and Environmental Research, Office of Basic
            Energy Sciences, and the Office of Advanced Scientific Computing.


           Job information
           ---------------

    hostname      = silenziosa
    program       = nwchem
    date          = Fri Mar  7 02:38:52 2014

    compiled      = Thu_May_05_12:06:54_2011
    source        = /build/buildd/nwchem-6.0
    nwchem branch = 6.0
    input         = dvb_un_sp_ks.nw
    prefix        = dvb.
    data base     = ./dvb.db
    status        = startup
    nproc         =        1
    time left     =     -1s



           Memory information
           ------------------

    heap     =   13107201 doubles =    100.0 Mbytes
    stack    =   13107201 doubles =    100.0 Mbytes
    global   =   26214400 doubles =    200.0 Mbytes (distinct from heap & stack)
    total    =   52428802 doubles =    400.0 Mbytes
    verify   = yes
    hardfail = no 


           Directory information
           ---------------------

  0 permanent = .
  0 scratch   = .




                                NWChem Input Module
                                -------------------


                        Divinylbenzene in STO-3G basis set
                        ----------------------------------

 Scaling coordinates for geometry "geometry" by  1.889725989
 (inverse scale =  0.529177249)

 Turning off AUTOSYM since
 SYMMETRY directive was detected!


          ------
          auto-z
          ------


                             Geometry "geometry" -> ""
                             -------------------------

 Output coordinates in angstroms (scale by  1.889725989 to convert to a.u.)

  No.       Tag          Charge          X              Y              Z
 ---- ---------------- ---------- -------------- -------------- --------------
    1 C                    6.0000    -1.41525332     0.23022179     0.00000000
    2 C                    6.0000     1.41525332    -0.23022179     0.00000000
    3 C                    6.0000    -0.49513316     1.31446087     0.00000000
    4 C                    6.0000     0.49513316    -1.31446087     0.00000000
    5 C                    6.0000     0.88940904     1.09094937     0.00000000
    6 C                    6.0000    -0.88940904    -1.09094937     0.00000000
    7 H                    1.0000    -0.87955120     2.34373437     0.00000000
    8 H                    1.0000     0.87955120    -2.34373437     0.00000000
    9 H                    1.0000     1.57790416     1.94500613     0.00000000
   10 H                    1.0000    -1.57790416    -1.94500613     0.00000000
   11 C                    6.0000     2.88458450    -0.52108938     0.00000000
   12 C                    6.0000    -2.88458450     0.52108938     0.00000000
   13 H                    1.0000     3.14033568    -1.59196057     0.00000000
   14 H                    1.0000    -3.14033568     1.59196057     0.00000000
   15 C                    6.0000     3.88004281     0.38225354     0.00000000
   16 C                    6.0000    -3.88004281    -0.38225354     0.00000000
   17 H                    1.0000     3.69467659     1.46243896     0.00000000
   18 H                    1.0000    -3.69467659    -1.46243896     0.00000000
   19 H                    1.0000     4.93164535     0.07110495     0.00000000
   20 H                    1.0000    -4.93164535    -0.07110495     0.00000000

      Atomic Mass 
      ----------- 

      C                 12.000000
      H                  1.007825


 Effective nuclear repulsion energy (a.u.)     445.9370121674

            Nuclear Dipole moment (a.u.) 
            ----------------------------
        X                 Y               Z
 ---------------- ---------------- ----------------
     0.0000000000     0.0000000000     0.0000000000



                                Z-matrix (autoz)
                                -------- 

 Units are Angstrom for bonds and degrees for angles

      Type          Name      I     J     K     L     M      Value
      ----------- --------  ----- ----- ----- ----- ----- ----------
    1 Stretch                  1     3                       1.42204
    2 Stretch                  1     6                       1.42197
    3 Stretch                  1    12                       1.49784
    4 Stretch                  2     4                       1.42204
    5 Stretch                  2     5                       1.42197
    6 Stretch                  2    11                       1.49784
    7 Stretch                  3     5                       1.40247
    8 Stretch                  3     7                       1.09872
    9 Stretch                  4     6                       1.40247
   10 Stretch                  4     8                       1.09872
   11 Stretch                  5     9                       1.09701
   12 Stretch                  6    10                       1.09701
   13 Stretch                 11    13                       1.10099
   14 Stretch                 11    15                       1.34423
   15 Stretch                 12    14                       1.10099
   16 Stretch                 12    16                       1.34423
   17 Stretch                 15    17                       1.09597
   18 Stretch                 15    19                       1.09667
   19 Stretch                 16    18                       1.09597
   20 Stretch                 16    20                       1.09667
   21 Bend                     1     3     5               121.14867
   22 Bend                     1     3     7               119.20109
   23 Bend                     1     6     4               120.87358
   24 Bend                     1     6    10               119.42285
   25 Bend                     1    12    14               114.62953
   26 Bend                     1    12    16               126.57992
   27 Bend                     2     4     6               121.14867
   28 Bend                     2     4     8               119.20109
   29 Bend                     2     5     3               120.87358
   30 Bend                     2     5     9               119.42285
   31 Bend                     2    11    13               114.62953
   32 Bend                     2    11    15               126.57992
   33 Bend                     3     1     6               117.97776
   34 Bend                     3     1    12               119.12155
   35 Bend                     3     5     9               119.70357
   36 Bend                     4     2     5               117.97776
   37 Bend                     4     2    11               119.12155
   38 Bend                     4     6    10               119.70357
   39 Bend                     5     2    11               122.90069
   40 Bend                     5     3     7               119.65024
   41 Bend                     6     1    12               122.90069
   42 Bend                     6     4     8               119.65024
   43 Bend                    11    15    17               122.48517
   44 Bend                    11    15    19               121.29492
   45 Bend                    12    16    18               122.48517
   46 Bend                    12    16    20               121.29492
   47 Bend                    13    11    15               118.79054
   48 Bend                    14    12    16               118.79054
   49 Bend                    17    15    19               116.21990
   50 Bend                    18    16    20               116.21990
   51 Torsion                  1     3     5     2           0.00000
   52 Torsion                  1     3     5     9         180.00000
   53 Torsion                  1     6     4     2           0.00000
   54 Torsion                  1     6     4     8         180.00000
   55 Torsion                  1    12    16    18           0.00000
   56 Torsion                  1    12    16    20         180.00000
   57 Torsion                  2     4     6    10         180.00000
   58 Torsion                  2     5     3     7         180.00000
   59 Torsion                  2    11    15    17           0.00000
   60 Torsion                  2    11    15    19         180.00000
   61 Torsion                  3     1     6     4           0.00000
   62 Torsion                  3     1     6    10         180.00000
   63 Torsion                  3     1    12    14          -0.00000
   64 Torsion                  3     1    12    16         180.00000
   65 Torsion                  3     5     2     4          -0.00000
   66 Torsion                  3     5     2    11         180.00000
   67 Torsion                  4     2     5     9         180.00000
   68 Torsion                  4     2    11    13           0.00000
   69 Torsion                  4     2    11    15         180.00000
   70 Torsion                  4     6     1    12         180.00000
   71 Torsion                  5     2     4     6           0.00000
   72 Torsion                  5     2     4     8         180.00000
   73 Torsion                  5     2    11    13         180.00000
   74 Torsion                  5     2    11    15           0.00000
   75 Torsion                  5     3     1     6           0.00000
   76 Torsion                  5     3     1    12         180.00000
   77 Torsion                  6     1     3     7         180.00000
   78 Torsion                  6     1    12    14         180.00000
   79 Torsion                  6     1    12    16           0.00000
   80 Torsion                  6     4     2    11         180.00000
   81 Torsion                  7     3     1    12           0.00000
   82 Torsion                  7     3     5     9           0.00000
   83 Torsion                  8     4     2    11           0.00000
   84 Torsion                  8     4     6    10           0.00000
   85 Torsion                  9     5     2    11           0.00000
   86 Torsion                 10     6     1    12           0.00000
   87 Torsion                 13    11    15    17         180.00000
   88 Torsion                 13    11    15    19           0.00000
   89 Torsion                 14    12    16    18         180.00000
   90 Torsion                 14    12    16    20           0.00000


            XYZ format geometry
            -------------------
    20
 geometry
 C                    -1.41525332     0.23022179     0.00000000
 C                     1.41525332    -0.23022179     0.00000000
 C                    -0.49513316     1.31446087     0.00000000
 C                     0.49513316    -1.31446087     0.00000000
 C                     0.88940904     1.09094937     0.00000000
 C                    -0.88940904    -1.09094937     0.00000000
 H                    -0.87955120     2.34373437     0.00000000
 H                     0.87955120    -2.34373437     0.00000000
 H                     1.57790416     1.94500613     0.00000000
 H                    -1.57790416    -1.94500613     0.00000000
 C                     2.88458450    -0.52108938     0.00000000
 C                    -2.88458450     0.52108938     0.00000000
 H                     3.14033568    -1.59196057     0.00000000
 H                    -3.14033568     1.59196057     0.00000000
 C                     3.88004281     0.38225354     0.00000000
 C                    -3.88004281    -0.38225354     0.00000000
 H                     3.69467659     1.46243896     0.00000000
 H                    -3.69467659    -1.46243896     0.00000000
 H                     4.93164535     0.07110495     0.00000000
 H                    -4.93164535    -0.07110495     0.00000000

 ==============================================================================
                                internuclear distances
 ------------------------------------------------------------------------------
       center one      |      center two      | atomic units |  angstroms
 ------------------------------------------------------------------------------
    3 C                |   1 C                |     2.68726  |     1.42204
    4 C                |   2 C                |     2.68726  |     1.42204
    5 C                |   2 C                |     2.68714  |     1.42197
    5 C                |   3 C                |     2.65028  |     1.40247
    6 C                |   1 C                |     2.68714  |     1.42197
    6 C                |   4 C                |     2.65028  |     1.40247
    7 H                |   3 C                |     2.07628  |     1.09872
    8 H                |   4 C                |     2.07628  |     1.09872
    9 H                |   5 C                |     2.07305  |     1.09701
   10 H                |   6 C                |     2.07305  |     1.09701
   11 C                |   2 C                |     2.83052  |     1.49784
   12 C                |   1 C                |     2.83052  |     1.49784
   13 H                |  11 C                |     2.08056  |     1.10099
   14 H                |  12 C                |     2.08056  |     1.10099
   15 C                |  11 C                |     2.54023  |     1.34423
   16 C                |  12 C                |     2.54023  |     1.34423
   17 H                |  15 C                |     2.07109  |     1.09597
   18 H                |  16 C                |     2.07109  |     1.09597
   19 H                |  15 C                |     2.07240  |     1.09667
   20 H                |  16 C                |     2.07240  |     1.09667
 ------------------------------------------------------------------------------
                         number of included internuclear distances:         20
 ==============================================================================



 ==============================================================================
                                 internuclear angles
 ------------------------------------------------------------------------------
        center 1       |       center 2       |       center 3       |  degrees
 ------------------------------------------------------------------------------
    3 C                |   1 C                |   6 C                |   117.98
    3 C                |   1 C                |  12 C                |   119.12
    6 C                |   1 C                |  12 C                |   122.90
    4 C                |   2 C                |   5 C                |   117.98
    4 C                |   2 C                |  11 C                |   119.12
    5 C                |   2 C                |  11 C                |   122.90
    1 C                |   3 C                |   5 C                |   121.15
    1 C                |   3 C                |   7 H                |   119.20
    5 C                |   3 C                |   7 H                |   119.65
    2 C                |   4 C                |   6 C                |   121.15
    2 C                |   4 C                |   8 H                |   119.20
    6 C                |   4 C                |   8 H                |   119.65
    2 C                |   5 C                |   3 C                |   120.87
    2 C                |   5 C                |   9 H                |   119.42
    3 C                |   5 C                |   9 H                |   119.70
    1 C                |   6 C                |   4 C                |   120.87
    1 C                |   6 C                |  10 H                |   119.42
    4 C                |   6 C                |  10 H                |   119.70
    2 C                |  11 C                |  13 H                |   114.63
    2 C                |  11 C                |  15 C                |   126.58
   13 H                |  11 C                |  15 C                |   118.79
    1 C                |  12 C                |  14 H                |   114.63
    1 C                |  12 C                |  16 C                |   126.58
   14 H                |  12 C                |  16 C                |   118.79
   11 C                |  15 C                |  17 H                |   122.49
   11 C                |  15 C                |  19 H                |   121.29
   17 H                |  15 C                |  19 H                |   116.22
   12 C                |  16 C                |  18 H                |   122.49
   12 C                |  16 C                |  20 H                |   121.29
   18 H                |  16 C                |  20 H                |   116.22
 ------------------------------------------------------------------------------
                            number of included internuclear angles:         30
 ==============================================================================





 Summary of "ao basis" -> "" (cartesian)
 ------------------------------------------------------------------------------
       Tag                 Description            Shells   Functions and Types
 ---------------- ------------------------------  ------  ---------------------
 *                           sto-3g                   on all atoms 


                              NWChem Property Module
                              ----------------------


                        Divinylbenzene in STO-3G basis set

  itol2e modified to match energy
  convergence criterion.

                                 NWChem DFT Module
                                 -----------------


                        Divinylbenzene in STO-3G basis set


                      Basis "ao basis" -> "ao basis" (cartesian)
                      -----
  C (Carbon)
  ----------
            Exponent  Coefficients 
       -------------- ---------------------------------------------------------
  1 S  7.16168370E+01  0.154329
  1 S  1.30450960E+01  0.535328
  1 S  3.53051220E+00  0.444635

  2 S  2.94124940E+00 -0.099967
  2 S  6.83483100E-01  0.399513
  2 S  2.22289900E-01  0.700115

  3 P  2.94124940E+00  0.155916
  3 P  6.83483100E-01  0.607684
  3 P  2.22289900E-01  0.391957

  H (Hydrogen)
  ------------
            Exponent  Coefficients 
       -------------- ---------------------------------------------------------
  1 S  3.42525091E+00  0.154329
  1 S  6.23913730E-01  0.535328
  1 S  1.68855400E-01  0.444635



 Summary of "ao basis" -> "ao basis" (cartesian)
 ------------------------------------------------------------------------------
       Tag                 Description            Shells   Functions and Types
 ---------------- ------------------------------  ------  ---------------------
 C                           sto-3g                  3        5   2s1p
 H                           sto-3g                  1        1   1s


  Caching 1-el integrals 
  itol2e modified to match energy
  convergence criterion.

            General Information
            -------------------
          SCF calculation type: DFT
          Wavefunction type:  spin polarized.
          No. of atoms     :    20
          No. of electrons :    69
           Alpha electrons :    35
            Beta electrons :    34
          Charge           :     1
          Spin multiplicity:     2
          Use of symmetry is: off; symmetry adaption is: off
          Maximum number of iterations:  30
          AO basis - number of functions:    60
                     number of shells:    40
          Convergence on energy requested: 1.00D-07
          Convergence on density requested: 1.00D-05
          Convergence on gradient requested: 1.00D-06

              XC Information
              --------------
                         B3LYP Method XC Potential
                     Hartree-Fock (Exact) Exchange  0.200          
                        Slater Exchange Functional  0.800 local    
                    Becke 1988 Exchange Functional  0.720 non-local
              Lee-Yang-Parr Correlation Functional  0.810          
                  VWN I RPA Correlation Functional  0.190 local    

             Grid Information
             ----------------
          Grid used for XC integration:  xfine     
          Radial quadrature: Mura-Knowles        
          Angular quadrature: Lebedev. 
          Tag              B.-S. Rad. Rad. Pts. Rad. Cut. Ang. Pts.
          ---              ---------- --------- --------- ---------
          C                   0.70      100          13.0      1454
          H                   0.35      100          13.0      1202
          Grid pruning is: on 
          Number of quadrature shells:  2000
          Spatial weights used:  Erf1

          Convergence Information
          -----------------------
          Convergence aids based upon iterative change in 
          total energy or number of iterations. 
          Levelshifting, if invoked, occurs when the 
          HOMO/LUMO gap drops below (HL_TOL): 1.00D-02
          DIIS, if invoked, will attempt to extrapolate 
          using up to (NFOCK): 10 stored Fock matrices.

                    Damping( 0%)  Levelshifting(0.5)       DIIS
                  --------------- ------------------- ---------------
          dE  on:    start            ASAP                start   
          dE off:    2 iters         30 iters            30 iters 


      Screening Tolerance Information
      -------------------------------
          Density screening/tol_rho: 1.00D-11
          AO Gaussian exp screening on grid/accAOfunc:  16
          CD Gaussian exp screening on grid/accCDfunc:  20
          XC Gaussian exp screening on grid/accXCfunc:  20
          Schwarz screening/accCoul: 1.00D-08


      Superposition of Atomic Density Guess
      -------------------------------------

 Sum of atomic energies:        -376.44825176

 Renormalizing density from      70.00 to     69

      Non-variational initial energy
      ------------------------------

 Total energy =    -375.750729
 1-e energy   =   -1381.430366
 2-e energy   =     559.742625
 HOMO         =      -0.261060
 LUMO         =      -0.063255

   Time after variat. SCF:      0.7
   Time prior to 1st pass:      0.7

 Integral file          = ./dvb.aoints.0
 Record size in doubles =  65536        No. of integs per rec  =  43688
 Max. records in memory =     54        Max. records in file   =  55620
 No. of bits per label  =      8        No. of bits per value  =     64


 #quartets = 2.143D+05 #integrals = 6.268D+05 #direct =  0.0% #cached =100.0%


 Grid_pts file          = ./dvb.gridpts.0
 Record size in doubles =  12289        No. of grid_pts per rec  =   3070
 Max. records in memory =      0        Max. recs in file   =    296619


           Memory utilization after 1st SCF pass: 
           Heap Space remaining (MW):        9.57             9565082
          Stack Space remaining (MW):       13.11            13105725

   convergence    iter        energy       DeltaE   RMS-Dens  Diis-err    time
 ---------------- ----- ----------------- --------- --------- ---------  ------
 d= 0,ls=0.0,diis     1   -382.0243202601 -8.28D+02  7.77D-03  1.04D-01    30.0
                                                     7.68D-03  1.02D-01
 d= 0,ls=0.0,diis     2   -382.0647539758 -4.04D-02  4.64D-03  1.95D-02    59.2
                                                     5.39D-03  2.36D-02
 d= 0,ls=0.0,diis     3   -382.0625004876  2.25D-03  2.83D-03  2.67D-02    88.2
                                                     2.64D-03  2.26D-02
 d= 0,ls=0.0,diis     4   -382.0809245741 -1.84D-02  3.84D-04  5.13D-04   117.0
                                                     3.93D-04  5.30D-04
 d= 0,ls=0.0,diis     5   -382.0812988931 -3.74D-04  2.64D-04  2.82D-05   146.0
                                                     2.73D-04  3.75D-05
 d= 0,ls=0.0,diis     6   -382.0813979292 -9.90D-05  1.70D-04  7.54D-06   175.3
                                                     1.78D-04  1.25D-05
 d= 0,ls=0.0,diis     7   -382.0814284604 -3.05D-05  1.03D-04  4.36D-06   204.2
                                                     1.16D-04  5.76D-06
 d= 0,ls=0.0,diis     8   -382.0814379705 -9.51D-06  3.50D-05  7.11D-07   233.1
                                                     3.69D-05  6.45D-07
 d= 0,ls=0.0,diis     9   -382.0814389221 -9.52D-07  6.93D-06  2.19D-08   261.9
                                                     6.92D-06  1.50D-08
 d= 0,ls=0.0,diis    10   -382.0814389669 -4.48D-08  1.32D-06  1.86D-09   290.7
                                                     1.86D-06  2.05D-09


         Total DFT energy =     -382.081438966854
      One electron energy =    -1386.634911784590
           Coulomb energy =      615.978088010256
    Exchange-Corr. energy =      -57.361627359967
 Nuclear repulsion energy =      445.937012167446

 Numeric. integr. density =       69.000000236573

     Total iterative time =    290.0s



                    DFT Final Alpha Molecular Orbital Analysis
                    ------------------------------------------

 Vector    1  Occ=1.000000D+00  E=-1.025361D+01
              MO Center=  7.0D-02, -1.1D-02,  3.0D-12, r^2= 2.1D+00
   Bfn.  Coefficient  Atom+Function         Bfn.  Coefficient  Atom+Function  
  ----- ------------  ---------------      ----- ------------  ---------------
     6     -0.717357   2 C  s                 1      0.682748   1 C  s         

 Vector    2  Occ=1.000000D+00  E=-1.025356D+01
              MO Center= -7.0D-02,  1.1D-02,  2.8D-12, r^2= 2.1D+00
   Bfn.  Coefficient  Atom+Function         Bfn.  Coefficient  Atom+Function  
  ----- ------------  ---------------      ----- ------------  ---------------
     1     -0.717381   1 C  s                 6     -0.682773   2 C  s         

 Vector    3  Occ=1.000000D+00  E=-1.021954D+01
              MO Center=  3.9D-02,  5.2D-02,  2.7D-14, r^2= 2.0D+00
   Bfn.  Coefficient  Atom+Function         Bfn.  Coefficient  Atom+Function  
  ----- ------------  ---------------      ----- ------------  ---------------
    21     -0.698859   5 C  s                26      0.666595   6 C  s         
    11      0.158567   3 C  s                16     -0.150483   4 C  s         

 Vector    4  Occ=1.000000D+00  E=-1.021950D+01
              MO Center= -3.8D-02, -5.2D-02,  5.6D-14, r^2= 2.0D+00
   Bfn.  Coefficient  Atom+Function         Bfn.  Coefficient  Atom+Function  
  ----- ------------  ---------------      ----- ------------  ---------------
    26      0.692955   6 C  s                21      0.660622   5 C  s         
    16     -0.182744   4 C  s                11     -0.174950   3 C  s         

 Vector    5  Occ=1.000000D+00  E=-1.021807D+01
              MO Center=  7.0D-03, -2.2D-02,  7.7D-13, r^2= 2.0D+00
   Bfn.  Coefficient  Atom+Function         Bfn.  Coefficient  Atom+Function  
  ----- ------------  ---------------      ----- ------------  ---------------
    16      0.688766   4 C  s                11     -0.677246   3 C  s         
    26      0.157335   6 C  s                21     -0.153801   5 C  s         

 Vector    6  Occ=1.000000D+00  E=-1.021797D+01
              MO Center= -7.3D-03,  2.2D-02,  7.8D-13, r^2= 2.0D+00
   Bfn.  Coefficient  Atom+Function         Bfn.  Coefficient  Atom+Function  
  ----- ------------  ---------------      ----- ------------  ---------------
    11      0.681230   3 C  s                16      0.669366   4 C  s         
    21      0.180106   5 C  s                26      0.177842   6 C  s         

 Vector    7  Occ=1.000000D+00  E=-1.021758D+01
              MO Center=  1.7D+00, -3.1D-01,  2.3D-12, r^2= 5.6D+00
   Bfn.  Coefficient  Atom+Function         Bfn.  Coefficient  Atom+Function  
  ----- ------------  ---------------      ----- ------------  ---------------
    35      0.881450  11 C  s                40     -0.442667  12 C  s         

 Vector    8  Occ=1.000000D+00  E=-1.021757D+01
              MO Center= -1.7D+00,  3.1D-01,  4.1D-12, r^2= 5.6D+00
   Bfn.  Coefficient  Atom+Function         Bfn.  Coefficient  Atom+Function  
  ----- ------------  ---------------      ----- ------------  ---------------
    40      0.880212  12 C  s                35      0.440166  11 C  s         

 Vector    9  Occ=1.000000D+00  E=-1.021526D+01
              MO Center=  3.9D+00,  3.7D-01,  3.2D-13, r^2= 1.3D-01
   Bfn.  Coefficient  Atom+Function         Bfn.  Coefficient  Atom+Function  
  ----- ------------  ---------------      ----- ------------  ---------------
    47      0.986265  15 C  s         

 Vector   10  Occ=1.000000D+00  E=-1.021526D+01
              MO Center= -3.9D+00, -3.7D-01, -1.1D-13, r^2= 1.3D-01
   Bfn.  Coefficient  Atom+Function         Bfn.  Coefficient  Atom+Function  
  ----- ------------  ---------------      ----- ------------  ---------------
    52      0.986262  16 C  s         

 Vector   11  Occ=1.000000D+00  E=-1.020758D+00
              MO Center=  3.1D-05, -3.4D-06,  5.9D-11, r^2= 2.8D+00
   Bfn.  Coefficient  Atom+Function         Bfn.  Coefficient  Atom+Function  
  ----- ------------  ---------------      ----- ------------  ---------------
     7     -0.290621   2 C  s                 2     -0.290613   1 C  s         
    22     -0.241193   5 C  s                27     -0.241189   6 C  s         
    17     -0.239206   4 C  s                12     -0.239202   3 C  s         

 Vector   12  Occ=1.000000D+00  E=-9.619150D-01
              MO Center=  3.4D-05,  6.0D-07,  2.0D-10, r^2= 7.1D+00
   Bfn.  Coefficient  Atom+Function         Bfn.  Coefficient  Atom+Function  
  ----- ------------  ---------------      ----- ------------  ---------------
     2     -0.302154   1 C  s                 7      0.302149   2 C  s         
    36      0.278914  11 C  s                41     -0.278907  12 C  s         
    48      0.200883  15 C  s                53     -0.200876  16 C  s         

 Vector   13  Occ=1.000000D+00  E=-9.216111D-01
              MO Center=  4.3D-06,  7.5D-07,  1.4D-10, r^2= 1.1D+01
   Bfn.  Coefficient  Atom+Function         Bfn.  Coefficient  Atom+Function  
  ----- ------------  ---------------      ----- ------------  ---------------
    48      0.322505  15 C  s                53      0.322502  16 C  s         
    41      0.312363  12 C  s                36      0.312360  11 C  s         

 Vector   14  Occ=1.000000D+00  E=-8.992451D-01
              MO Center=  5.7D-06,  2.6D-06, -1.2D-10, r^2= 3.1D+00
   Bfn.  Coefficient  Atom+Function         Bfn.  Coefficient  Atom+Function  
  ----- ------------  ---------------      ----- ------------  ---------------
    17     -0.363913   4 C  s                12      0.363912   3 C  s         
    22      0.320462   5 C  s                27     -0.320458   6 C  s         

 Vector   15  Occ=1.000000D+00  E=-8.767189D-01
              MO Center= -5.4D-05, -2.2D-06,  1.6D-10, r^2= 9.2D+00
   Bfn.  Coefficient  Atom+Function         Bfn.  Coefficient  Atom+Function  
  ----- ------------  ---------------      ----- ------------  ---------------
    53     -0.313582  16 C  s                48      0.313575  15 C  s         
     7     -0.266869   2 C  s                 2      0.266867   1 C  s         
    27      0.205224   6 C  s                22     -0.205219   5 C  s         
    41     -0.162253  12 C  s                36      0.162244  11 C  s         

 Vector   16  Occ=1.000000D+00  E=-7.871082D-01
              MO Center=  1.8D-05, -4.5D-07,  1.1D-10, r^2= 7.6D+00
   Bfn.  Coefficient  Atom+Function         Bfn.  Coefficient  Atom+Function  
  ----- ------------  ---------------      ----- ------------  ---------------
    22      0.249092   5 C  s                27      0.249090   6 C  s         
    48      0.238940  15 C  s                53      0.238938  16 C  s         
     2     -0.224054   1 C  s                 7     -0.224052   2 C  s         
    18     -0.170821   4 C  px               13      0.170821   3 C  px        

 Vector   17  Occ=1.000000D+00  E=-7.598641D-01
              MO Center=  2.7D-06, -8.7D-07,  5.2D-11, r^2= 4.9D+00
   Bfn.  Coefficient  Atom+Function         Bfn.  Coefficient  Atom+Function  
  ----- ------------  ---------------      ----- ------------  ---------------
    12     -0.334339   3 C  s                17     -0.334339   4 C  s         
     9      0.204329   2 C  py                4     -0.204328   1 C  py        
    23      0.178863   5 C  px               28     -0.178861   6 C  px        
    27      0.169847   6 C  s                22      0.169842   5 C  s         
     2      0.160176   1 C  s                 7      0.160175   2 C  s         

 Vector   18  Occ=1.000000D+00  E=-7.224910D-01
              MO Center=  6.0D-05, -6.7D-07,  1.3D-11, r^2= 1.2D+01
   Bfn.  Coefficient  Atom+Function         Bfn.  Coefficient  Atom+Function  
  ----- ------------  ---------------      ----- ------------  ---------------
    36      0.309258  11 C  s                41     -0.309251  12 C  s         
    48     -0.268357  15 C  s                53      0.268352  16 C  s         
     8      0.161306   2 C  px                3      0.161301   1 C  px        
    12      0.153598   3 C  s                17     -0.153595   4 C  s         
    45      0.152834  13 H  s                46     -0.152829  14 H  s         

 Vector   19  Occ=1.000000D+00  E=-7.035954D-01
              MO Center= -6.9D-05,  1.8D-06, -1.1D-12, r^2= 7.3D+00
   Bfn.  Coefficient  Atom+Function         Bfn.  Coefficient  Atom+Function  
  ----- ------------  ---------------      ----- ------------  ---------------
    29     -0.203541   6 C  py               24      0.203541   5 C  py        
    19     -0.190488   4 C  py               14      0.190487   3 C  py        
    41      0.185531  12 C  s                36      0.185518  11 C  s         
    53     -0.177461  16 C  s                48     -0.177450  15 C  s         
    22      0.170726   5 C  s                27      0.170721   6 C  s         

 Vector   20  Occ=1.000000D+00  E=-6.504740D-01
              MO Center=  5.8D-05,  2.6D-06,  6.9D-11, r^2= 1.0D+01
   Bfn.  Coefficient  Atom+Function         Bfn.  Coefficient  Atom+Function  
  ----- ------------  ---------------      ----- ------------  ---------------
    50     -0.228283  15 C  py               55      0.228277  16 C  py        
    37      0.182214  11 C  px               42     -0.182205  12 C  px        
    57     -0.177950  17 H  s                58     -0.177945  18 H  s         
    41      0.158082  12 C  s                36      0.158079  11 C  s         

 Vector   21  Occ=1.000000D+00  E=-6.349745D-01
              MO Center=  1.0D-05, -3.9D-06, -4.6D-11, r^2= 9.2D+00
   Bfn.  Coefficient  Atom+Function         Bfn.  Coefficient  Atom+Function  
  ----- ------------  ---------------      ----- ------------  ---------------
    18     -0.215035   4 C  px               13     -0.215029   3 C  px        
    38      0.211429  11 C  py               43      0.211427  12 C  py        
    49     -0.199539  15 C  px               54     -0.199533  16 C  px        
     9      0.173934   2 C  py                4      0.173933   1 C  py        
    59     -0.151328  19 H  s                60      0.151324  20 H  s         

 Vector   22  Occ=1.000000D+00  E=-6.039884D-01
              MO Center= -4.3D-06, -5.0D-06,  8.1D-11, r^2= 7.9D+00
   Bfn.  Coefficient  Atom+Function         Bfn.  Coefficient  Atom+Function  
  ----- ------------  ---------------      ----- ------------  ---------------
    37      0.208635  11 C  px               42      0.208634  12 C  px        
    55     -0.203203  16 C  py               50     -0.203202  15 C  py        
    19     -0.183516   4 C  py               14     -0.183514   3 C  py        
     9      0.181471   2 C  py                4      0.181470   1 C  py        
    23      0.180041   5 C  px               28      0.180037   6 C  px        

 Vector   23  Occ=1.000000D+00  E=-5.960855D-01
              MO Center= -1.1D-05,  3.7D-06, -1.0D-11, r^2= 7.2D+00
   Bfn.  Coefficient  Atom+Function         Bfn.  Coefficient  Atom+Function  
  ----- ------------  ---------------      ----- ------------  ---------------
    29      0.284214   6 C  py               24      0.284212   5 C  py        
    34     -0.234041  10 H  s                33      0.234039   9 H  s         
    55      0.175242  16 C  py               50      0.175241  15 C  py        
     7     -0.173213   2 C  s                 2      0.173211   1 C  s         
     3      0.154905   1 C  px                8      0.154901   2 C  px        

 Vector   24  Occ=1.000000D+00  E=-5.878138D-01
              MO Center=  3.6D-05,  8.1D-06,  9.5D-12, r^2= 1.5D+01
   Bfn.  Coefficient  Atom+Function         Bfn.  Coefficient  Atom+Function  
  ----- ------------  ---------------      ----- ------------  ---------------
    49      0.350764  15 C  px               54     -0.350759  16 C  px        
    38     -0.265927  11 C  py               43      0.265923  12 C  py        
    59      0.246192  19 H  s                60      0.246190  20 H  s         
    45      0.150421  13 H  s                46      0.150419  14 H  s         

 Vector   25  Occ=1.000000D+00  E=-5.688475D-01
              MO Center=  1.0D-05,  1.8D-06, -9.5D-12, r^2= 4.6D+00
   Bfn.  Coefficient  Atom+Function         Bfn.  Coefficient  Atom+Function  
  ----- ------------  ---------------      ----- ------------  ---------------
    19      0.334535   4 C  py               14      0.334532   3 C  py        
    32     -0.248261   8 H  s                31      0.248259   7 H  s         
    24      0.196107   5 C  py               29      0.196103   6 C  py        
    23      0.192863   5 C  px               28      0.192861   6 C  px        
    33      0.190861   9 H  s                34     -0.190857  10 H  s         

 Vector   26  Occ=1.000000D+00  E=-5.522392D-01
              MO Center= -6.1D-05, -2.1D-05,  4.8D-12, r^2= 1.0D+01
   Bfn.  Coefficient  Atom+Function         Bfn.  Coefficient  Atom+Function  
  ----- ------------  ---------------      ----- ------------  ---------------
    54      0.283591  16 C  px               49      0.283580  15 C  px        
    18     -0.220087   4 C  px               13     -0.220077   3 C  px        
    43     -0.216254  12 C  py               38     -0.216250  11 C  py        
    28      0.210581   6 C  px               23      0.210569   5 C  px        
    60     -0.178290  20 H  s                59      0.178280  19 H  s         

 Vector   27  Occ=1.000000D+00  E=-5.370988D-01
              MO Center=  5.7D-06,  7.6D-06, -2.5D-10, r^2= 1.1D+01
   Bfn.  Coefficient  Atom+Function         Bfn.  Coefficient  Atom+Function  
  ----- ------------  ---------------      ----- ------------  ---------------
    55      0.294447  16 C  py               50     -0.294446  15 C  py        
    57     -0.237654  17 H  s                58     -0.237653  18 H  s         
    43     -0.193202  12 C  py               38      0.193201  11 C  py        
    45     -0.172743  13 H  s                46     -0.172741  14 H  s         
    13     -0.170675   3 C  px               18      0.170673   4 C  px        

 Vector   28  Occ=1.000000D+00  E=-5.336356D-01
              MO Center=  3.5D-05, -4.0D-06,  7.5D-11, r^2= 3.5D+00
   Bfn.  Coefficient  Atom+Function         Bfn.  Coefficient  Atom+Function  
  ----- ------------  ---------------      ----- ------------  ---------------
    10      0.362060   2 C  pz                5      0.362049   1 C  pz        
    25      0.287491   5 C  pz               30      0.287486   6 C  pz        
    20      0.285425   4 C  pz               15      0.285421   3 C  pz        
    39      0.163588  11 C  pz               44      0.163581  12 C  pz        

 Vector   29  Occ=1.000000D+00  E=-5.010491D-01
              MO Center=  1.5D-04, -4.9D-06,  5.6D-11, r^2= 1.3D+01
   Bfn.  Coefficient  Atom+Function         Bfn.  Coefficient  Atom+Function  
  ----- ------------  ---------------      ----- ------------  ---------------
    45      0.260452  13 H  s                46     -0.260441  14 H  s         
    38     -0.235502  11 C  py               43     -0.235494  12 C  py        
    57      0.235373  17 H  s                58     -0.235367  18 H  s         
    50      0.233875  15 C  py               55      0.233874  16 C  py        
     8     -0.219093   2 C  px                3     -0.219068   1 C  px        

 Vector   30  Occ=1.000000D+00  E=-4.932965D-01
              MO Center= -1.0D-04,  9.8D-06,  2.1D-11, r^2= 6.1D+00
   Bfn.  Coefficient  Atom+Function         Bfn.  Coefficient  Atom+Function  
  ----- ------------  ---------------      ----- ------------  ---------------
    33     -0.259659   9 H  s                34     -0.259659  10 H  s         
     3     -0.247141   1 C  px                8      0.247122   2 C  px        
    18     -0.244569   4 C  px               13      0.244567   3 C  px        
    23     -0.217354   5 C  px               28      0.217354   6 C  px        
    42      0.210878  12 C  px               37     -0.210865  11 C  px        

 Vector   31  Occ=1.000000D+00  E=-4.827091D-01
              MO Center= -1.3D-04,  2.9D-06,  1.5D-12, r^2= 7.5D+00
   Bfn.  Coefficient  Atom+Function         Bfn.  Coefficient  Atom+Function  
  ----- ------------  ---------------      ----- ------------  ---------------
     4      0.256798   1 C  py                9     -0.256791   2 C  py        
    29     -0.251401   6 C  py               24      0.251391   5 C  py        
    32     -0.234489   8 H  s                31     -0.234489   7 H  s         
    19      0.201938   4 C  py               14     -0.201938   3 C  py        
    46     -0.200766  14 H  s                45     -0.200750  13 H  s         

 Vector   32  Occ=1.000000D+00  E=-4.736148D-01
              MO Center=  3.9D-06,  2.8D-06, -2.1D-10, r^2= 7.3D+00
   Bfn.  Coefficient  Atom+Function         Bfn.  Coefficient  Atom+Function  
  ----- ------------  ---------------      ----- ------------  ---------------
     5      0.383791   1 C  pz               10     -0.383783   2 C  pz        
    39     -0.342908  11 C  pz               44      0.342905  12 C  pz        
    51     -0.265412  15 C  pz               56      0.265406  16 C  pz        

 Vector   33  Occ=1.000000D+00  E=-4.179013D-01
              MO Center=  3.4D-05,  2.4D-06, -9.2D-11, r^2= 1.2D+01
   Bfn.  Coefficient  Atom+Function         Bfn.  Coefficient  Atom+Function  
  ----- ------------  ---------------      ----- ------------  ---------------
    51     -0.447525  15 C  pz               56     -0.447518  16 C  pz        
    39     -0.389916  11 C  pz               44     -0.389915  12 C  pz        
    20      0.169002   4 C  pz               15      0.168994   3 C  pz        
    25      0.167864   5 C  pz               30      0.167854   6 C  pz        

 Vector   34  Occ=1.000000D+00  E=-3.943456D-01
              MO Center=  2.9D-06, -1.2D-06,  2.0D-10, r^2= 2.7D+00
   Bfn.  Coefficient  Atom+Function         Bfn.  Coefficient  Atom+Function  
  ----- ------------  ---------------      ----- ------------  ---------------
    20     -0.460818   4 C  pz               15      0.460816   3 C  pz        
    25      0.460422   5 C  pz               30     -0.460420   6 C  pz        

 Vector   35  Occ=1.000000D+00  E=-3.697061D-01
              MO Center= -6.9D-05, -6.0D-07, -1.9D-10, r^2= 8.9D+00
   Bfn.  Coefficient  Atom+Function         Bfn.  Coefficient  Atom+Function  
  ----- ------------  ---------------      ----- ------------  ---------------
    56     -0.429440  16 C  pz               51      0.429428  15 C  pz        
     5      0.377795   1 C  pz               10     -0.377795   2 C  pz        
    44     -0.228300  12 C  pz               39      0.228289  11 C  pz        
    30      0.201081   6 C  pz               25     -0.201074   5 C  pz        
    15      0.194067   3 C  pz               20     -0.194060   4 C  pz        

 Vector   36  Occ=0.000000D+00  E=-1.774527D-01
              MO Center=  2.9D-05, -5.6D-07,  2.1D-10, r^2= 7.3D+00
   Bfn.  Coefficient  Atom+Function         Bfn.  Coefficient  Atom+Function  
  ----- ------------  ---------------      ----- ------------  ---------------
    10      0.454619   2 C  pz                5      0.454619   1 C  pz        
    51     -0.414088  15 C  pz               56     -0.414082  16 C  pz        
    25     -0.298955   5 C  pz               30     -0.298949   6 C  pz        
    20     -0.257050   4 C  pz               15     -0.257044   3 C  pz        
    39      0.248019  11 C  pz               44      0.248011  12 C  pz        

 Vector   37  Occ=0.000000D+00  E=-1.115348D-01
              MO Center= -3.0D-06,  7.3D-07, -1.7D-10, r^2= 2.7D+00
   Bfn.  Coefficient  Atom+Function         Bfn.  Coefficient  Atom+Function  
  ----- ------------  ---------------      ----- ------------  ---------------
    15     -0.583603   3 C  pz               20     -0.583601   4 C  pz        
    30      0.552460   6 C  pz               25      0.552458   5 C  pz        

 Vector   38  Occ=0.000000D+00  E=-9.435652D-02
              MO Center=  9.0D-06, -2.1D-06, -1.1D-11, r^2= 1.1D+01
   Bfn.  Coefficient  Atom+Function         Bfn.  Coefficient  Atom+Function  
  ----- ------------  ---------------      ----- ------------  ---------------
    39      0.540546  11 C  pz               44     -0.540540  12 C  pz        
    51     -0.500547  15 C  pz               56      0.500546  16 C  pz        
    15      0.245382   3 C  pz               20     -0.245375   4 C  pz        
    30      0.235403   6 C  pz               25     -0.235394   5 C  pz        

 Vector   39  Occ=0.000000D+00  E=-2.962544D-02
              MO Center= -1.8D-05,  2.2D-08, -6.7D-11, r^2= 8.3D+00
   Bfn.  Coefficient  Atom+Function         Bfn.  Coefficient  Atom+Function  
  ----- ------------  ---------------      ----- ------------  ---------------
    44      0.553843  12 C  pz               39      0.553837  11 C  pz        
    10     -0.468049   2 C  pz                5     -0.468041   1 C  pz        
    56     -0.386388  16 C  pz               51     -0.386381  15 C  pz        
    25      0.192065   5 C  pz               30      0.192052   6 C  pz        
    20      0.159672   4 C  pz               15      0.159660   3 C  pz        

 Vector   40  Occ=0.000000D+00  E= 5.994693D-02
              MO Center= -2.4D-05,  2.6D-06,  6.1D-10, r^2= 3.9D+00
   Bfn.  Coefficient  Atom+Function         Bfn.  Coefficient  Atom+Function  
  ----- ------------  ---------------      ----- ------------  ---------------
     5      0.526874   1 C  pz               10     -0.526865   2 C  pz        
    30     -0.473771   6 C  pz               25      0.473767   5 C  pz        
    15     -0.472962   3 C  pz               20      0.472958   4 C  pz        
    44     -0.292067  12 C  pz               39      0.292059  11 C  pz        
    56      0.155722  16 C  pz               51     -0.155717  15 C  pz        

 Vector   41  Occ=0.000000D+00  E= 1.397098D-01
              MO Center=  2.3D-04, -6.6D-05, -3.9D-11, r^2= 8.7D+00
   Bfn.  Coefficient  Atom+Function         Bfn.  Coefficient  Atom+Function  
  ----- ------------  ---------------      ----- ------------  ---------------
     7     -0.488108   2 C  s                 2     -0.488066   1 C  s         
    34      0.390600  10 H  s                33      0.390587   9 H  s         
    32      0.378101   8 H  s                31      0.378070   7 H  s         
    37     -0.372584  11 C  px               42      0.372543  12 C  px        
    36      0.347618  11 C  s                41      0.347589  12 C  s         

 Vector   42  Occ=0.000000D+00  E= 1.490023D-01
              MO Center= -1.5D-04,  8.2D-05,  5.8D-11, r^2= 9.8D+00
   Bfn.  Coefficient  Atom+Function         Bfn.  Coefficient  Atom+Function  
  ----- ------------  ---------------      ----- ------------  ---------------
    46      0.353750  14 H  s                45     -0.353745  13 H  s         
    14     -0.339890   3 C  py               19     -0.339858   4 C  py        
    43     -0.327344  12 C  py               38     -0.327322  11 C  py        
    58     -0.322961  18 H  s                57      0.322954  17 H  s         
    55     -0.313732  16 C  py               50     -0.313721  15 C  py        

 Vector   43  Occ=0.000000D+00  E= 1.792478D-01
              MO Center= -6.9D-06, -1.6D-05, -4.3D-10, r^2= 6.4D+00
   Bfn.  Coefficient  Atom+Function         Bfn.  Coefficient  Atom+Function  
  ----- ------------  ---------------      ----- ------------  ---------------
    36     -0.587181  11 C  s                41      0.587173  12 C  s         
     3      0.446729   1 C  px                8      0.446729   2 C  px        
    34      0.400074  10 H  s                33     -0.400069   9 H  s         
     2     -0.343308   1 C  s                 7      0.343299   2 C  s         
    42      0.325270  12 C  px               37      0.325262  11 C  px        

 Vector   44  Occ=0.000000D+00  E= 1.964607D-01
              MO Center= -1.0D-06, -1.8D-05, -1.5D-10, r^2= 1.1D+01
   Bfn.  Coefficient  Atom+Function         Bfn.  Coefficient  Atom+Function  
  ----- ------------  ---------------      ----- ------------  ---------------
    46     -0.520722  14 H  s                45     -0.520715  13 H  s         
    17     -0.467468   4 C  s                12     -0.467450   3 C  s         
    57      0.403068  17 H  s                58      0.403064  18 H  s         
    34      0.332587  10 H  s                33      0.332579   9 H  s         
    41      0.322831  12 C  s                36      0.322823  11 C  s         

 Vector   45  Occ=0.000000D+00  E= 2.146785D-01
              MO Center=  3.5D-04,  1.3D-04, -9.9D-11, r^2= 8.5D+00
   Bfn.  Coefficient  Atom+Function         Bfn.  Coefficient  Atom+Function  
  ----- ------------  ---------------      ----- ------------  ---------------
    22      0.771105   5 C  s                27      0.770990   6 C  s         
    48      0.518838  15 C  s                53      0.518740  16 C  s         
     7     -0.433765   2 C  s                 2     -0.433680   1 C  s         
    12     -0.406000   3 C  s                17     -0.405925   4 C  s         
    57     -0.386658  17 H  s                58     -0.386583  18 H  s         

 Vector   46  Occ=0.000000D+00  E= 2.203562D-01
              MO Center= -3.5D-04, -1.6D-04,  4.4D-10, r^2= 8.9D+00
   Bfn.  Coefficient  Atom+Function         Bfn.  Coefficient  Atom+Function  
  ----- ------------  ---------------      ----- ------------  ---------------
    27     -0.643446   6 C  s                22      0.643306   5 C  s         
     2      0.505204   1 C  s                 7     -0.505144   2 C  s         
    17      0.484366   4 C  s                12     -0.484282   3 C  s         
    53     -0.481547  16 C  s                48      0.481439  15 C  s         
    32     -0.412771   8 H  s                31      0.412742   7 H  s         

 Vector   47  Occ=0.000000D+00  E= 2.396751D-01
              MO Center=  1.3D-04, -1.4D-05,  2.5D-10, r^2= 7.5D+00
   Bfn.  Coefficient  Atom+Function         Bfn.  Coefficient  Atom+Function  
  ----- ------------  ---------------      ----- ------------  ---------------
     7     -0.724236   2 C  s                 2     -0.724204   1 C  s         
    17      0.638854   4 C  s                12      0.638780   3 C  s         
    41      0.483240  12 C  s                36      0.483148  11 C  s         
    48     -0.460794  15 C  s                53     -0.460671  16 C  s         
    57      0.356634  17 H  s                58      0.356587  18 H  s         

 Vector   48  Occ=0.000000D+00  E= 2.405839D-01
              MO Center= -5.9D-05,  5.0D-05, -5.5D-11, r^2= 1.2D+01
   Bfn.  Coefficient  Atom+Function         Bfn.  Coefficient  Atom+Function  
  ----- ------------  ---------------      ----- ------------  ---------------
    31      0.510064   7 H  s                32     -0.509967   8 H  s         
    60     -0.462306  20 H  s                59      0.462260  19 H  s         
    45      0.458388  13 H  s                46     -0.458308  14 H  s         
    36     -0.419641  11 C  s                41      0.419518  12 C  s         
    49     -0.340731  15 C  px               54     -0.340717  16 C  px        

 Vector   49  Occ=0.000000D+00  E= 2.630201D-01
              MO Center= -8.2D-05,  1.2D-05, -7.9D-10, r^2= 1.2D+01
   Bfn.  Coefficient  Atom+Function         Bfn.  Coefficient  Atom+Function  
  ----- ------------  ---------------      ----- ------------  ---------------
    53      0.738185  16 C  s                48     -0.738168  15 C  s         
    58     -0.576740  18 H  s                57      0.576725  17 H  s         
    41     -0.469402  12 C  s                36      0.469380  11 C  s         
    33     -0.400675   9 H  s                34      0.400671  10 H  s         
    12     -0.361303   3 C  s                17      0.361263   4 C  s         

 Vector   50  Occ=0.000000D+00  E= 2.853150D-01
              MO Center= -1.7D-05, -5.4D-06, -4.5D-12, r^2= 1.3D+01
   Bfn.  Coefficient  Atom+Function         Bfn.  Coefficient  Atom+Function  
  ----- ------------  ---------------      ----- ------------  ---------------
    22      0.574415   5 C  s                27      0.574408   6 C  s         
    17     -0.573678   4 C  s                12     -0.573666   3 C  s         
    60      0.569869  20 H  s                59      0.569865  19 H  s         
    53     -0.524643  16 C  s                48     -0.524630  15 C  s         
    49     -0.407793  15 C  px               54      0.407790  16 C  px        

 Vector   51  Occ=0.000000D+00  E= 3.197838D-01
              MO Center=  6.7D-06, -1.1D-06, -7.9D-11, r^2= 6.7D+00
   Bfn.  Coefficient  Atom+Function         Bfn.  Coefficient  Atom+Function  
  ----- ------------  ---------------      ----- ------------  ---------------
     3     -0.613437   1 C  px                8      0.613436   2 C  px        
    41     -0.600302  12 C  s                36     -0.600300  11 C  s         
    19      0.439996   4 C  py               14     -0.439990   3 C  py        
    46      0.343496  14 H  s                45      0.343495  13 H  s         
    24     -0.335814   5 C  py               29      0.335809   6 C  py        

 Vector   52  Occ=0.000000D+00  E= 3.442761D-01
              MO Center= -5.0D-06,  3.1D-06, -2.9D-11, r^2= 8.0D+00
   Bfn.  Coefficient  Atom+Function         Bfn.  Coefficient  Atom+Function  
  ----- ------------  ---------------      ----- ------------  ---------------
    12      0.640624   3 C  s                17     -0.640611   4 C  s         
     4     -0.549876   1 C  py                9     -0.549873   2 C  py        
    23      0.470713   5 C  px               28      0.470704   6 C  px        
    49     -0.459112  15 C  px               54     -0.459112  16 C  px        
    60     -0.377565  20 H  s                59      0.377562  19 H  s         

 Vector   53  Occ=0.000000D+00  E= 3.799990D-01
              MO Center= -6.0D-06, -1.2D-06,  5.7D-13, r^2= 5.8D+00
   Bfn.  Coefficient  Atom+Function         Bfn.  Coefficient  Atom+Function  
  ----- ------------  ---------------      ----- ------------  ---------------
    34      0.550021  10 H  s                33      0.550017   9 H  s         
    14      0.543959   3 C  py               19     -0.543955   4 C  py        
    29      0.508340   6 C  py               24     -0.508335   5 C  py        
    31     -0.498446   7 H  s                32     -0.498444   8 H  s         
    23     -0.353371   5 C  px               28      0.353369   6 C  px        

 Vector   54  Occ=0.000000D+00  E= 3.978243D-01
              MO Center= -5.4D-06, -2.2D-06,  1.4D-11, r^2= 4.4D+00
   Bfn.  Coefficient  Atom+Function         Bfn.  Coefficient  Atom+Function  
  ----- ------------  ---------------      ----- ------------  ---------------
    18      0.706882   4 C  px               13      0.706879   3 C  px        
    27      0.585149   6 C  s                22     -0.585148   5 C  s         
     2      0.439559   1 C  s                 7     -0.439554   2 C  s         
    28      0.433072   6 C  px               23      0.433066   5 C  px        
    41     -0.383129  12 C  s                36      0.383125  11 C  s         

 Vector   55  Occ=0.000000D+00  E= 4.254743D-01
              MO Center=  1.2D-04,  5.9D-07, -1.5D-11, r^2= 1.2D+01
   Bfn.  Coefficient  Atom+Function         Bfn.  Coefficient  Atom+Function  
  ----- ------------  ---------------      ----- ------------  ---------------
    50      0.558447  15 C  py               55      0.558430  16 C  py        
     7      0.529206   2 C  s                 2     -0.529204   1 C  s         
    37      0.471045  11 C  px               42      0.471027  12 C  px        
    45     -0.401516  13 H  s                46      0.401497  14 H  s         
    57     -0.390975  17 H  s                58      0.390956  18 H  s         

 Vector   56  Occ=0.000000D+00  E= 4.381741D-01
              MO Center= -8.4D-05,  2.3D-07, -1.2D-11, r^2= 9.7D+00
   Bfn.  Coefficient  Atom+Function         Bfn.  Coefficient  Atom+Function  
  ----- ------------  ---------------      ----- ------------  ---------------
    43      0.562308  12 C  py               38     -0.562296  11 C  py        
    54      0.552654  16 C  px               49     -0.552644  15 C  px        
    13      0.426563   3 C  px               18     -0.426559   4 C  px        
    60      0.353036  20 H  s                59      0.353016  19 H  s         
    28     -0.352675   6 C  px               23      0.352671   5 C  px        

 Vector   57  Occ=0.000000D+00  E= 4.777543D-01
              MO Center= -5.6D-06,  4.3D-07, -2.7D-11, r^2= 9.9D+00
   Bfn.  Coefficient  Atom+Function         Bfn.  Coefficient  Atom+Function  
  ----- ------------  ---------------      ----- ------------  ---------------
    37      0.669971  11 C  px               42     -0.669968  12 C  px        
    55     -0.606561  16 C  py               50      0.606560  15 C  py        
    28      0.423990   6 C  px               23     -0.423987   5 C  px        
     8      0.383249   2 C  px                3     -0.383247   1 C  px        
    13     -0.350556   3 C  px               18      0.350547   4 C  px        

 Vector   58  Occ=0.000000D+00  E= 5.060471D-01
              MO Center= -1.1D-06, -2.5D-06,  3.5D-11, r^2= 9.7D+00
   Bfn.  Coefficient  Atom+Function         Bfn.  Coefficient  Atom+Function  
  ----- ------------  ---------------      ----- ------------  ---------------
    38     -0.624497  11 C  py               43     -0.624495  12 C  py        
    54     -0.550940  16 C  px               49     -0.550938  15 C  px        
    53     -0.518297  16 C  s                48      0.518293  15 C  s         
    42     -0.453196  12 C  px               37     -0.453189  11 C  px        
    41      0.447974  12 C  s                36     -0.447967  11 C  s         

 Vector   59  Occ=0.000000D+00  E= 5.676005D-01
              MO Center= -4.2D-05,  4.9D-06, -1.4D-11, r^2= 5.4D+00
   Bfn.  Coefficient  Atom+Function         Bfn.  Coefficient  Atom+Function  
  ----- ------------  ---------------      ----- ------------  ---------------
     4     -0.691499   1 C  py                9      0.691488   2 C  py        
    18      0.542432   4 C  px               13     -0.542431   3 C  px        
    24      0.435594   5 C  py               29     -0.435584   6 C  py        
    43      0.435033  12 C  py               38     -0.435016  11 C  py        
    28      0.419725   6 C  px               23     -0.419709   5 C  px        

 Vector   60  Occ=0.000000D+00  E= 5.817431D-01
              MO Center= -2.4D-05,  7.7D-08,  3.3D-11, r^2= 3.7D+00
   Bfn.  Coefficient  Atom+Function         Bfn.  Coefficient  Atom+Function  
  ----- ------------  ---------------      ----- ------------  ---------------
     3     -0.643678   1 C  px                8     -0.643672   2 C  px        
    19     -0.567277   4 C  py               14     -0.567275   3 C  py        
    29      0.497388   6 C  py               24      0.497375   5 C  py        
    23      0.395341   5 C  px               28      0.395334   6 C  px        
    27      0.383107   6 C  s                22     -0.383106   5 C  s         


                     DFT Final Beta Molecular Orbital Analysis
                     -----------------------------------------

 Vector    1  Occ=1.000000D+00  E=-1.025063D+01
              MO Center=  7.7D-02, -1.2D-02,  2.8D-12, r^2= 2.1D+00
   Bfn.  Coefficient  Atom+Function         Bfn.  Coefficient  Atom+Function  
  ----- ------------  ---------------      ----- ------------  ---------------
     6      0.719045   2 C  s                 1     -0.681054   1 C  s         

 Vector    2  Occ=1.000000D+00  E=-1.025059D+01
              MO Center= -7.7D-02,  1.2D-02,  2.6D-12, r^2= 2.1D+00
   Bfn.  Coefficient  Atom+Function         Bfn.  Coefficient  Atom+Function  
  ----- ------------  ---------------      ----- ------------  ---------------
     1     -0.719067   1 C  s                 6     -0.681077   2 C  s         

 Vector    3  Occ=1.000000D+00  E=-1.021921D+01
              MO Center=  4.2D-02,  5.8D-02, -5.2D-14, r^2= 2.0D+00
   Bfn.  Coefficient  Atom+Function         Bfn.  Coefficient  Atom+Function  
  ----- ------------  ---------------      ----- ------------  ---------------
    21      0.697767   5 C  s                26     -0.662510   6 C  s         
    11     -0.170052   3 C  s                16      0.160526   4 C  s         

 Vector    4  Occ=1.000000D+00  E=-1.021918D+01
              MO Center= -4.1D-02, -5.8D-02, -2.8D-14, r^2= 2.0D+00
   Bfn.  Coefficient  Atom+Function         Bfn.  Coefficient  Atom+Function  
  ----- ------------  ---------------      ----- ------------  ---------------
    26     -0.690839   6 C  s                21     -0.655481   5 C  s         
    16      0.196242   4 C  s                11      0.187094   3 C  s         

 Vector    5  Occ=1.000000D+00  E=-1.021842D+01
              MO Center=  2.9D+00, -5.2D-01,  1.6D-12, r^2= 6.2D-02
   Bfn.  Coefficient  Atom+Function         Bfn.  Coefficient  Atom+Function  
  ----- ------------  ---------------      ----- ------------  ---------------
    35      0.989193  11 C  s         

 Vector    6  Occ=1.000000D+00  E=-1.021842D+01
              MO Center= -2.9D+00,  5.2D-01,  4.8D-12, r^2= 6.3D-02
   Bfn.  Coefficient  Atom+Function         Bfn.  Coefficient  Atom+Function  
  ----- ------------  ---------------      ----- ------------  ---------------
    40     -0.989217  12 C  s         

 Vector    7  Occ=1.000000D+00  E=-1.021787D+01
              MO Center=  6.3D-03, -2.1D-02,  6.5D-13, r^2= 2.0D+00
   Bfn.  Coefficient  Atom+Function         Bfn.  Coefficient  Atom+Function  
  ----- ------------  ---------------      ----- ------------  ---------------
    16      0.685850   4 C  s                11     -0.675212   3 C  s         
    26      0.168079   6 C  s                21     -0.164469   5 C  s         

 Vector    8  Occ=1.000000D+00  E=-1.021776D+01
              MO Center= -6.8D-03,  2.1D-02,  6.4D-13, r^2= 2.0D+00
   Bfn.  Coefficient  Atom+Function         Bfn.  Coefficient  Atom+Function  
  ----- ------------  ---------------      ----- ------------  ---------------
    11      0.678289   3 C  s                16      0.667261   4 C  s         
    21      0.193947   5 C  s                26      0.191759   6 C  s         

 Vector    9  Occ=1.000000D+00  E=-1.021079D+01
              MO Center=  3.9D+00,  3.8D-01,  2.1D-13, r^2= 5.5D-02
   Bfn.  Coefficient  Atom+Function         Bfn.  Coefficient  Atom+Function  
  ----- ------------  ---------------      ----- ------------  ---------------
    47     -0.990269  15 C  s         

 Vector   10  Occ=1.000000D+00  E=-1.021079D+01
              MO Center= -3.9D+00, -3.8D-01, -2.5D-13, r^2= 5.5D-02
   Bfn.  Coefficient  Atom+Function         Bfn.  Coefficient  Atom+Function  
  ----- ------------  ---------------      ----- ------------  ---------------
    52     -0.990269  16 C  s         

 Vector   11  Occ=1.000000D+00  E=-1.014703D+00
              MO Center=  2.9D-05, -3.3D-06,  7.7D-11, r^2= 2.8D+00
   Bfn.  Coefficient  Atom+Function         Bfn.  Coefficient  Atom+Function  
  ----- ------------  ---------------      ----- ------------  ---------------
     7     -0.279929   2 C  s                 2     -0.279921   1 C  s         
    22     -0.245664   5 C  s                27     -0.245660   6 C  s         
    17     -0.244414   4 C  s                12     -0.244411   3 C  s         

 Vector   12  Occ=1.000000D+00  E=-9.544769D-01
              MO Center=  3.4D-05, -2.3D-07,  2.3D-10, r^2= 7.1D+00
   Bfn.  Coefficient  Atom+Function         Bfn.  Coefficient  Atom+Function  
  ----- ------------  ---------------      ----- ------------  ---------------
     2     -0.294373   1 C  s                 7      0.294369   2 C  s         
    36      0.292074  11 C  s                41     -0.292066  12 C  s         
    48      0.187107  15 C  s                53     -0.187101  16 C  s         

 Vector   13  Occ=1.000000D+00  E=-9.137369D-01
              MO Center= -7.6D-06,  9.5D-07,  1.1D-10, r^2= 1.1D+01
   Bfn.  Coefficient  Atom+Function         Bfn.  Coefficient  Atom+Function  
  ----- ------------  ---------------      ----- ------------  ---------------
    41      0.329687  12 C  s                36      0.329683  11 C  s         
    48      0.296727  15 C  s                53      0.296725  16 C  s         

 Vector   14  Occ=1.000000D+00  E=-8.975980D-01
              MO Center=  6.5D-06,  1.8D-06, -2.5D-10, r^2= 3.0D+00
   Bfn.  Coefficient  Atom+Function         Bfn.  Coefficient  Atom+Function  
  ----- ------------  ---------------      ----- ------------  ---------------
    17      0.359673   4 C  s                12     -0.359672   3 C  s         
    22     -0.330005   5 C  s                27      0.330001   6 C  s         

 Vector   15  Occ=1.000000D+00  E=-8.645205D-01
              MO Center= -4.1D-05, -1.0D-06,  1.5D-10, r^2= 9.1D+00
   Bfn.  Coefficient  Atom+Function         Bfn.  Coefficient  Atom+Function  
  ----- ------------  ---------------      ----- ------------  ---------------
    53     -0.299602  16 C  s                48      0.299598  15 C  s         
     7     -0.262753   2 C  s                 2      0.262751   1 C  s         
    27      0.193854   6 C  s                22     -0.193849   5 C  s         
    41     -0.173284  12 C  s                36      0.173276  11 C  s         

 Vector   16  Occ=1.000000D+00  E=-7.818198D-01
              MO Center=  1.7D-05,  5.6D-07,  2.2D-12, r^2= 7.6D+00
   Bfn.  Coefficient  Atom+Function         Bfn.  Coefficient  Atom+Function  
  ----- ------------  ---------------      ----- ------------  ---------------
    22      0.252832   5 C  s                27      0.252831   6 C  s         
    48      0.235214  15 C  s                53      0.235212  16 C  s         
     2     -0.210255   1 C  s                 7     -0.210253   2 C  s         
    18     -0.172728   4 C  px               13      0.172727   3 C  px        

 Vector   17  Occ=1.000000D+00  E=-7.558015D-01
              MO Center=  3.1D-06, -1.6D-06,  6.1D-11, r^2= 5.2D+00
   Bfn.  Coefficient  Atom+Function         Bfn.  Coefficient  Atom+Function  
  ----- ------------  ---------------      ----- ------------  ---------------
    17      0.329210   4 C  s                12      0.329210   3 C  s         
     9     -0.192696   2 C  py                4      0.192695   1 C  py        
    23     -0.179976   5 C  px               28      0.179975   6 C  px        
     2     -0.173333   1 C  s                 7     -0.173332   2 C  s         
    27     -0.156900   6 C  s                22     -0.156895   5 C  s         

 Vector   18  Occ=1.000000D+00  E=-7.185951D-01
              MO Center=  5.9D-05, -7.5D-07, -1.2D-11, r^2= 1.2D+01
   Bfn.  Coefficient  Atom+Function         Bfn.  Coefficient  Atom+Function  
  ----- ------------  ---------------      ----- ------------  ---------------
    36      0.298331  11 C  s                41     -0.298324  12 C  s         
    48     -0.270132  15 C  s                53      0.270127  16 C  s         
     8      0.155872   2 C  px                3      0.155866   1 C  px        
    12      0.154423   3 C  s                17     -0.154421   4 C  s         
    57     -0.154084  17 H  s                58      0.154080  18 H  s         

 Vector   19  Occ=1.000000D+00  E=-7.004629D-01
              MO Center= -6.7D-05,  1.6D-06, -1.0D-10, r^2= 7.3D+00
   Bfn.  Coefficient  Atom+Function         Bfn.  Coefficient  Atom+Function  
  ----- ------------  ---------------      ----- ------------  ---------------
    29     -0.206264   6 C  py               24      0.206264   5 C  py        
    19     -0.193895   4 C  py               14      0.193894   3 C  py        
    53     -0.178357  16 C  s                48     -0.178346  15 C  s         
    41      0.176051  12 C  s                36      0.176038  11 C  s         
    22      0.167707   5 C  s                27      0.167702   6 C  s         

 Vector   20  Occ=1.000000D+00  E=-6.482752D-01
              MO Center=  5.6D-05,  2.4D-06,  3.6D-11, r^2= 1.0D+01
   Bfn.  Coefficient  Atom+Function         Bfn.  Coefficient  Atom+Function  
  ----- ------------  ---------------      ----- ------------  ---------------
    50      0.222280  15 C  py               55     -0.222273  16 C  py        
    57      0.181600  17 H  s                58      0.181596  18 H  s         
    37     -0.181381  11 C  px               42      0.181373  12 C  px        
    41     -0.160015  12 C  s                36     -0.160012  11 C  s         
    45     -0.150903  13 H  s                46     -0.150899  14 H  s         

 Vector   21  Occ=1.000000D+00  E=-6.329027D-01
              MO Center=  7.7D-06, -4.1D-06, -6.2D-11, r^2= 9.2D+00
   Bfn.  Coefficient  Atom+Function         Bfn.  Coefficient  Atom+Function  
  ----- ------------  ---------------      ----- ------------  ---------------
    18      0.215262   4 C  px               13      0.215255   3 C  px        
    38     -0.213178  11 C  py               43     -0.213177  12 C  py        
    49      0.194394  15 C  px               54      0.194388  16 C  px        
     9     -0.169256   2 C  py                4     -0.169255   1 C  py        
    59      0.153677  19 H  s                60     -0.153674  20 H  s         

 Vector   22  Occ=1.000000D+00  E=-6.012783D-01
              MO Center= -2.7D-06, -5.1D-06,  2.4D-11, r^2= 7.7D+00
   Bfn.  Coefficient  Atom+Function         Bfn.  Coefficient  Atom+Function  
  ----- ------------  ---------------      ----- ------------  ---------------
    37      0.203591  11 C  px               42      0.203590  12 C  px        
    19     -0.190984   4 C  py               14     -0.190981   3 C  py        
    55     -0.190724  16 C  py               50     -0.190724  15 C  py        
    23      0.184550   5 C  px               28      0.184546   6 C  px        
     2      0.180486   1 C  s                 7     -0.180483   2 C  s         

 Vector   23  Occ=1.000000D+00  E=-5.932525D-01
              MO Center= -1.1D-05,  4.1D-06,  2.3D-11, r^2= 7.3D+00
   Bfn.  Coefficient  Atom+Function         Bfn.  Coefficient  Atom+Function  
  ----- ------------  ---------------      ----- ------------  ---------------
    29      0.288990   6 C  py               24      0.288988   5 C  py        
    34     -0.229693  10 H  s                33      0.229691   9 H  s         
    55      0.180108  16 C  py               50      0.180107  15 C  py        
     7     -0.164790   2 C  s                 2      0.164788   1 C  s         
     3      0.158897   1 C  px                8      0.158894   2 C  px        

 Vector   24  Occ=1.000000D+00  E=-5.849151D-01
              MO Center=  3.7D-05,  8.9D-06, -1.9D-11, r^2= 1.5D+01
   Bfn.  Coefficient  Atom+Function         Bfn.  Coefficient  Atom+Function  
  ----- ------------  ---------------      ----- ------------  ---------------
    49     -0.343378  15 C  px               54      0.343373  16 C  px        
    38      0.269525  11 C  py               43     -0.269522  12 C  py        
    59     -0.248485  19 H  s                60     -0.248483  20 H  s         
    45     -0.151271  13 H  s                46     -0.151269  14 H  s         

 Vector   25  Occ=1.000000D+00  E=-5.681443D-01
              MO Center=  8.5D-06,  5.9D-07, -9.4D-13, r^2= 4.5D+00
   Bfn.  Coefficient  Atom+Function         Bfn.  Coefficient  Atom+Function  
  ----- ------------  ---------------      ----- ------------  ---------------
    19     -0.333706   4 C  py               14     -0.333703   3 C  py        
    32      0.251511   8 H  s                31     -0.251509   7 H  s         
    23     -0.202177   5 C  px               28     -0.202176   6 C  px        
    33     -0.192297   9 H  s                34      0.192294  10 H  s         
    24     -0.191679   5 C  py               29     -0.191676   6 C  py        

 Vector   26  Occ=1.000000D+00  E=-5.492900D-01
              MO Center= -5.5D-05, -2.0D-05,  6.2D-12, r^2= 1.0D+01
   Bfn.  Coefficient  Atom+Function         Bfn.  Coefficient  Atom+Function  
  ----- ------------  ---------------      ----- ------------  ---------------
    54     -0.280920  16 C  px               49     -0.280910  15 C  px        
    43      0.221588  12 C  py               38      0.221585  11 C  py        
    18      0.214013   4 C  px               13      0.214002   3 C  px        
    28     -0.198443   6 C  px               23     -0.198431   5 C  px        
    60      0.180325  20 H  s                59     -0.180315  19 H  s         

 Vector   27  Occ=1.000000D+00  E=-5.351472D-01
              MO Center=  2.1D-06,  7.9D-06, -1.4D-11, r^2= 1.1D+01
   Bfn.  Coefficient  Atom+Function         Bfn.  Coefficient  Atom+Function  
  ----- ------------  ---------------      ----- ------------  ---------------
    55     -0.291882  16 C  py               50      0.291880  15 C  py        
    57      0.242946  17 H  s                58      0.242945  18 H  s         
    43      0.190181  12 C  py               38     -0.190179  11 C  py        
    13      0.171666   3 C  px               18     -0.171663   4 C  px        
    23     -0.170992   5 C  px               28      0.170988   6 C  px        

 Vector   28  Occ=1.000000D+00  E=-5.173612D-01
              MO Center=  2.9D-05, -3.4D-06, -1.0D-10, r^2= 3.6D+00
   Bfn.  Coefficient  Atom+Function         Bfn.  Coefficient  Atom+Function  
  ----- ------------  ---------------      ----- ------------  ---------------
    10     -0.335757   2 C  pz                5     -0.335749   1 C  pz        
    25     -0.299110   5 C  pz               30     -0.299106   6 C  pz        
    20     -0.298626   4 C  pz               15     -0.298623   3 C  pz        
    39     -0.178310  11 C  pz               44     -0.178303  12 C  pz        

 Vector   29  Occ=1.000000D+00  E=-4.994313D-01
              MO Center=  1.7D-04, -5.5D-06,  1.8D-11, r^2= 1.3D+01
   Bfn.  Coefficient  Atom+Function         Bfn.  Coefficient  Atom+Function  
  ----- ------------  ---------------      ----- ------------  ---------------
    45     -0.256256  13 H  s                46      0.256244  14 H  s         
    57     -0.240764  17 H  s                58      0.240756  18 H  s         
    38      0.232443  11 C  py               43      0.232434  12 C  py        
    50     -0.231363  15 C  py               55     -0.231361  16 C  py        
     8      0.216348   2 C  px                3      0.216321   1 C  px        

 Vector   30  Occ=1.000000D+00  E=-4.917912D-01
              MO Center= -1.3D-04,  1.1D-05, -4.9D-11, r^2= 6.5D+00
   Bfn.  Coefficient  Atom+Function         Bfn.  Coefficient  Atom+Function  
  ----- ------------  ---------------      ----- ------------  ---------------
     3     -0.253573   1 C  px                8      0.253552   2 C  px        
    18     -0.249649   4 C  px               13      0.249647   3 C  px        
    33     -0.249512   9 H  s                34     -0.249511  10 H  s         
    42      0.223471  12 C  px               37     -0.223456  11 C  px        
    23     -0.220706   5 C  px               28      0.220706   6 C  px        

 Vector   31  Occ=1.000000D+00  E=-4.811395D-01
              MO Center= -1.2D-04,  1.7D-06,  6.4D-11, r^2= 7.3D+00
   Bfn.  Coefficient  Atom+Function         Bfn.  Coefficient  Atom+Function  
  ----- ------------  ---------------      ----- ------------  ---------------
     4      0.267907   1 C  py                9     -0.267900   2 C  py        
    29     -0.261804   6 C  py               24      0.261794   5 C  py        
    31     -0.237940   7 H  s                32     -0.237940   8 H  s         
    14     -0.213087   3 C  py               19      0.213087   4 C  py        
    46     -0.195888  14 H  s                45     -0.195873  13 H  s         

 Vector   32  Occ=1.000000D+00  E=-4.507912D-01
              MO Center=  5.5D-06,  1.3D-06, -2.7D-10, r^2= 7.4D+00
   Bfn.  Coefficient  Atom+Function         Bfn.  Coefficient  Atom+Function  
  ----- ------------  ---------------      ----- ------------  ---------------
    39     -0.390132  11 C  pz               44      0.390128  12 C  pz        
     5      0.360527   1 C  pz               10     -0.360521   2 C  pz        
    51     -0.236400  15 C  pz               56      0.236396  16 C  pz        

 Vector   33  Occ=1.000000D+00  E=-3.911641D-01
              MO Center=  3.3D-06,  4.9D-06,  2.6D-10, r^2= 2.7D+00
   Bfn.  Coefficient  Atom+Function         Bfn.  Coefficient  Atom+Function  
  ----- ------------  ---------------      ----- ------------  ---------------
    20     -0.462064   4 C  pz               15      0.462064   3 C  pz        
    25      0.459177   5 C  pz               30     -0.459173   6 C  pz        

 Vector   34  Occ=1.000000D+00  E=-3.887357D-01
              MO Center= -1.1D-05, -4.1D-06, -7.3D-11, r^2= 1.0D+01
   Bfn.  Coefficient  Atom+Function         Bfn.  Coefficient  Atom+Function  
[...]
   18  H                  0.0000022285   0.0000000065   0.0005763887  -0.0000000000  -0.0237024136  -0.0000000000   0.0019751550
   19  H                 -0.0000022804  -0.0000187012  -0.0000000018  -0.0229600703  -0.0000000000  -0.0049979408  -0.0000000000
   20  H                 -0.0000000101  -0.0000000018  -0.0000187012  -0.0000000000  -0.0229600802  -0.0000000000  -0.0049979433

                              15             16             17             18             19             20
    1  C                 -0.0000002383  -0.0223044639  -0.0000002440  -0.0035883404   0.0000000060   0.0013085995
    2  C                 -0.0223045400  -0.0000002383  -0.0035883405  -0.0000002440   0.0013085994   0.0000000060
    3  C                  0.0000085673   0.0007341653  -0.0000131790   0.0000104867   0.0000001125  -0.0000145719
    4  C                  0.0007341645   0.0000085673   0.0000104867  -0.0000131790  -0.0000145719   0.0000001125
    5  C                 -0.0035412429  -0.0000079515  -0.0004910852  -0.0000003641   0.0000142941   0.0000001044
    6  C                 -0.0000079515  -0.0035412343  -0.0000003641  -0.0004910891   0.0000001044   0.0000142942
    7  H                  0.0000001124   0.0000302049   0.0000022285   0.0000008711  -0.0000000101  -0.0000022804
    8  H                  0.0000302049   0.0000001124   0.0000008711   0.0000022285  -0.0000022804  -0.0000000101
    9  H                 -0.0005231287   0.0000000915   0.0005763897   0.0000000065  -0.0000187012  -0.0000000018
   10  H                  0.0000000915  -0.0005231296   0.0000000065   0.0005763887  -0.0000000018  -0.0000187012
   11  C                  0.5538829147   0.0000000001  -0.0237024132  -0.0000000000  -0.0229600703  -0.0000000000
   12  C                  0.0000000001   0.5538824716  -0.0000000000  -0.0237024136  -0.0000000000  -0.0229600802
   13  H                 -0.0270766262   0.0000000000   0.0019751532  -0.0000000000  -0.0049979408  -0.0000000000
   14  H                  0.0000000000  -0.0270766458  -0.0000000000   0.0019751550  -0.0000000000  -0.0049979433
   15  C                  4.8051273704  -0.0000000000   0.3837650399   0.0000000000   0.3866786128   0.0000000000
   16  C                 -0.0000000000   4.8051229564   0.0000000000   0.3837650774   0.0000000000   0.3866786573
   17  H                  0.3837650399   0.0000000000   0.5389502794  -0.0000000000  -0.0210980698   0.0000000000
   18  H                  0.0000000000   0.3837650774  -0.0000000000   0.5389512275   0.0000000000  -0.0210981146
   19  H                  0.3866786128   0.0000000000  -0.0210980698   0.0000000000   0.5193964987  -0.0000000000
   20  H                  0.0000000000   0.3866786573   0.0000000000  -0.0210981146  -0.0000000000   0.5193975542

 Total      S,P,D,... shell population
 --------------------------------
    Atom          S        P
 --------------------------------------------------------------------------------------
     1 C      3.15401   2.79022
     2 C      3.15401   2.79022
     3 C      3.15874   2.88001
     4 C      3.15874   2.88002
     5 C      3.15654   2.88394
     6 C      3.15654   2.88393
     7 H      0.87264   0.00000
     8 H      0.87263   0.00000
     9 H      0.87681   0.00000
    10 H      0.87682   0.00000
    11 C      3.15924   2.88091
    12 C      3.15924   2.88091
    13 H      0.87547   0.00000
    14 H      0.87547   0.00000
    15 C      3.20183   2.87495
    16 C      3.20183   2.87494
    17 H      0.87639   0.00000
    18 H      0.87639   0.00000
    19 H      0.85831   0.00000
    20 H      0.85831   0.00000

          ----- Total      gross population on atoms ----

              1  C    6.0     5.94423
              2  C    6.0     5.94423
              3  C    6.0     6.03875
              4  C    6.0     6.03876
              5  C    6.0     6.04048
              6  C    6.0     6.04047
              7  H    1.0     0.87264
              8  H    1.0     0.87263
              9  H    1.0     0.87681
             10  H    1.0     0.87682
             11  C    6.0     6.04015
             12  C    6.0     6.04015
             13  H    1.0     0.87547
             14  H    1.0     0.87547
             15  C    6.0     6.07677
             16  C    6.0     6.07677
             17  H    1.0     0.87639
             18  H    1.0     0.87639
             19  H    1.0     0.85831
             20  H    1.0     0.85831

          ----- Spin population in ao -----

    1   1 C  s             0.00003
    2   1 C  s             0.01353
    3   1 C  px            0.00679
    4   1 C  py            0.00400
    5   1 C  pz            0.18869
    6   2 C  s             0.00003
    7   2 C  s             0.01353
    8   2 C  px            0.00679
    9   2 C  py            0.00400
   10   2 C  pz            0.18869
   11   3 C  s            -0.00001
   12   3 C  s            -0.00114
   13   3 C  px           -0.00247
   14   3 C  py           -0.00272
   15   3 C  pz            0.02424
   16   4 C  s            -0.00001
   17   4 C  s            -0.00114
   18   4 C  px           -0.00247
   19   4 C  py           -0.00272
   20   4 C  pz            0.02424
   21   5 C  s            -0.00001
   22   5 C  s            -0.00043
   23   5 C  px           -0.00047
   24   5 C  py           -0.00401
   25   5 C  pz            0.03214
   26   6 C  s            -0.00001
   27   6 C  s            -0.00043
   28   6 C  px           -0.00047
   29   6 C  py           -0.00401
   30   6 C  pz            0.03214
   31   7 H  s            -0.00121
   32   8 H  s            -0.00121
   33   9 H  s            -0.00158
   34  10 H  s            -0.00158
   35  11 C  s            -0.00004
   36  11 C  s            -0.00890
   37  11 C  px           -0.01033
   38  11 C  py           -0.00594
   39  11 C  pz           -0.03081
   40  12 C  s            -0.00004
   41  12 C  s            -0.00890
   42  12 C  px           -0.01033
   43  12 C  py           -0.00594
   44  12 C  pz           -0.03081
   45  13 H  s             0.00207
   46  14 H  s             0.00207
   47  15 C  s             0.00006
   48  15 C  s             0.02197
   49  15 C  px            0.00994
   50  15 C  py            0.01005
   51  15 C  pz            0.28574
   52  16 C  s             0.00006
   53  16 C  s             0.02197
   54  16 C  px            0.00994
   55  16 C  py            0.01005
   56  16 C  pz            0.28574
   57  17 H  s            -0.01439
   58  18 H  s            -0.01439
   59  19 H  s            -0.01480
   60  20 H  s            -0.01480

          ----- Atomic spin population -----

              1  C    6.0     0.21305
              2  C    6.0     0.21305
              3  C    6.0     0.01790
              4  C    6.0     0.01790
              5  C    6.0     0.02722
              6  C    6.0     0.02722
              7  H    1.0    -0.00121
              8  H    1.0    -0.00121
              9  H    1.0    -0.00158
             10  H    1.0    -0.00158
             11  C    6.0    -0.05602
             12  C    6.0    -0.05602
             13  H    1.0     0.00207
             14  H    1.0     0.00207
             15  C    6.0     0.32775
             16  C    6.0     0.32776
             17  H    1.0    -0.01439
             18  H    1.0    -0.01439
             19  H    1.0    -0.01480
             20  H    1.0    -0.01480

          ----- Bond indices -----
  1- 1   0.00000  1- 2   0.04997  1- 3   1.26324  1- 4   0.01795  1- 5   0.01920  1- 6   1.26226  1- 7   0.00417  1- 8   0.00717
  2- 1   0.04997  2- 2   0.00000  2- 3   0.01795  2- 4   1.26324  2- 5   1.26226  2- 6   0.01920  2- 7   0.00717  2- 8   0.00417
  3- 1   1.26324  3- 2   0.01795  3- 3   0.00000  3- 4   0.07130  3- 5   1.55327  3- 6   0.00906  3- 7   0.95236  3- 8   0.00018
  4- 1   0.01795  4- 2   1.26324  4- 3   0.07130  4- 4   0.00000  4- 5   0.00906  4- 6   1.55327  4- 7   0.00018  4- 8   0.95236
  5- 1   0.01920  5- 2   1.26226  5- 3   1.55327  5- 4   0.00906  5- 5   0.00000  5- 6   0.07238  5- 7   0.00296  5- 8   0.00702
  6- 1   1.26226  6- 2   0.01920  6- 3   0.00906  6- 4   1.55327  6- 5   0.07238  6- 6   0.00000  6- 7   0.00702  6- 8   0.00296
  7- 1   0.00417  7- 2   0.00717  7- 3   0.95236  7- 4   0.00018  7- 5   0.00296  7- 6   0.00702  7- 7   0.00000  7- 8   0.00008
  8- 1   0.00717  8- 2   0.00417  8- 3   0.00018  8- 4   0.95236  8- 5   0.00702  8- 6   0.00296  8- 7   0.00008  8- 8   0.00000
  9- 1   0.00716  9- 2   0.00413  9- 3   0.00288  9- 4   0.00709  9- 5   0.95163  9- 6   0.00017  9- 7   0.00313  9- 8   0.00119
 10- 1   0.00413 10- 2   0.00716 10- 3   0.00709 10- 4   0.00288 10- 5   0.00017 10- 6   0.95163 10- 7   0.00119 10- 8   0.00313
 11- 1   0.01648 11- 2   1.16858 11- 3   0.02459 11- 4   0.00964 11- 5   0.00923 11- 6   0.02276 11- 7   0.00090 11- 8   0.00280
 12- 1   1.16858 12- 2   0.01648 12- 3   0.00964 12- 4   0.02459 12- 5   0.02276 12- 6   0.00923 12- 7   0.00280 12- 8   0.00090
 13- 1   0.00003 13- 2   0.00540 13- 3   0.00077 13- 4   0.00198 13- 5   0.00588 13- 6   0.00007 13- 7   0.00027 13- 8   0.00128
 14- 1   0.00540 14- 2   0.00003 14- 3   0.00198 14- 4   0.00077 14- 5   0.00007 14- 6   0.00588 14- 7   0.00128 14- 8   0.00027
 15- 1   0.02148 15- 2   0.05865 15- 3   0.01637 15- 4   0.02377 15- 5   0.02068 15- 6   0.01952 15- 7   0.00002 15- 8   0.00010
 16- 1   0.05866 16- 2   0.02148 16- 3   0.02377 16- 4   0.01637 16- 5   0.01952 16- 6   0.02068 16- 7   0.00010 16- 8   0.00002
 17- 1   0.00000 17- 2   0.00460 17- 3   0.00012 17- 4   0.00012 17- 5   0.00034 17- 6   0.00002 17- 7   0.00002 17- 8   0.00002
 18- 1   0.00460 18- 2   0.00000 18- 3   0.00012 18- 4   0.00012 18- 5   0.00002 18- 6   0.00034 18- 7   0.00002 18- 8   0.00002
 19- 1   0.00003 19- 2   0.01072 19- 3   0.00001 19- 4   0.00074 19- 5   0.00036 19- 6   0.00024 19- 7   0.00002 19- 8   0.00007
 20- 1   0.01072 20- 2   0.00003 20- 3   0.00074 20- 4   0.00001 20- 5   0.00024 20- 6   0.00036 20- 7   0.00007 20- 8   0.00002
  1- 9   0.00716  1-10   0.00413  1-11   0.01648  1-12   1.16858  1-13   0.00003  1-14   0.00540  1-15   0.02148  1-16   0.05866
  2- 9   0.00413  2-10   0.00716  2-11   1.16858  2-12   0.01648  2-13   0.00540  2-14   0.00003  2-15   0.05865  2-16   0.02148
  3- 9   0.00288  3-10   0.00709  3-11   0.02459  3-12   0.00964  3-13   0.00077  3-14   0.00198  3-15   0.01637  3-16   0.02377
  4- 9   0.00709  4-10   0.00288  4-11   0.00964  4-12   0.02459  4-13   0.00198  4-14   0.00077  4-15   0.02377  4-16   0.01637
  5- 9   0.95163  5-10   0.00017  5-11   0.00923  5-12   0.02276  5-13   0.00588  5-14   0.00007  5-15   0.02068  5-16   0.01952
  6- 9   0.00017  6-10   0.95163  6-11   0.02276  6-12   0.00923  6-13   0.00007  6-14   0.00588  6-15   0.01952  6-16   0.02068
  7- 9   0.00313  7-10   0.00119  7-11   0.00090  7-12   0.00280  7-13   0.00027  7-14   0.00128  7-15   0.00002  7-16   0.00010
  8- 9   0.00119  8-10   0.00313  8-11   0.00280  8-12   0.00090  8-13   0.00128  8-14   0.00027  8-15   0.00010  8-16   0.00002
  9- 9   0.00000  9-10   0.00008  9-11   0.00308  9-12   0.00085  9-13   0.00011  9-14   0.00004  9-15   0.00043  9-16   0.00015
 10- 9   0.00008 10-10   0.00000 10-11   0.00085 10-12   0.00308 10-13   0.00004 10-14   0.00011 10-15   0.00015 10-16   0.00043
 11- 9   0.00308 11-10   0.00085 11-11   0.00000 11-12   0.01397 11-13   0.95004 11-14   0.00000 11-15   1.70493 11-16   0.02004
 12- 9   0.00085 12-10   0.00308 12-11   0.01397 12-12   0.00000 12-13   0.00000 12-14   0.95004 12-15   0.02004 12-16   1.70493
 13- 9   0.00011 13-10   0.00004 13-11   0.95004 13-12   0.00000 13-13   0.00000 13-14   0.00000 13-15   0.00235 13-16   0.00000
 14- 9   0.00004 14-10   0.00011 14-11   0.00000 14-12   0.95004 14-13   0.00000 14-14   0.00000 14-15   0.00000 14-16   0.00235
 15- 9   0.00043 15-10   0.00015 15-11   1.70493 15-12   0.02004 15-13   0.00235 15-14   0.00000 15-15   0.00000 15-16   0.02684
 16- 9   0.00015 16-10   0.00043 16-11   0.02004 16-12   1.70493 16-13   0.00000 16-14   0.00235 16-15   0.02684 16-16   0.00000
 17- 9   0.00250 17-10   0.00001 17-11   0.00368 17-12   0.00000 17-13   0.01172 17-14   0.00000 17-15   0.95731 17-16   0.00000
 18- 9   0.00001 18-10   0.00250 18-11   0.00000 18-12   0.00368 18-13   0.00000 18-14   0.01172 18-15   0.00000 18-16   0.95731
 19- 9   0.00013 19-10   0.00007 19-11   0.00280 19-12   0.00000 19-13   0.00454 19-14   0.00000 19-15   0.95593 19-16   0.00000
 20- 9   0.00007 20-10   0.00013 20-11   0.00000 20-12   0.00280 20-13   0.00000 20-14   0.00454 20-15   0.00000 20-16   0.95593
  1-17   0.00000  1-18   0.00460  1-19   0.00003  1-20   0.01072
  2-17   0.00460  2-18   0.00000  2-19   0.01072  2-20   0.00003
  3-17   0.00012  3-18   0.00012  3-19   0.00001  3-20   0.00074
  4-17   0.00012  4-18   0.00012  4-19   0.00074  4-20   0.00001
  5-17   0.00034  5-18   0.00002  5-19   0.00036  5-20   0.00024
  6-17   0.00002  6-18   0.00034  6-19   0.00024  6-20   0.00036
  7-17   0.00002  7-18   0.00002  7-19   0.00002  7-20   0.00007
  8-17   0.00002  8-18   0.00002  8-19   0.00007  8-20   0.00002
  9-17   0.00250  9-18   0.00001  9-19   0.00013  9-20   0.00007
 10-17   0.00001 10-18   0.00250 10-19   0.00007 10-20   0.00013
 11-17   0.00368 11-18   0.00000 11-19   0.00280 11-20   0.00000
 12-17   0.00000 12-18   0.00368 12-19   0.00000 12-20   0.00280
 13-17   0.01172 13-18   0.00000 13-19   0.00454 13-20   0.00000
 14-17   0.00000 14-18   0.01172 14-19   0.00000 14-20   0.00454
 15-17   0.95731 15-18   0.00000 15-19   0.95593 15-20   0.00000
 16-17   0.00000 16-18   0.95731 16-19   0.00000 16-20   0.95593
 17-17   0.00000 17-18   0.00000 17-19   0.00404 17-20   0.00000
 18-17   0.00000 18-18   0.00000 18-19   0.00000 18-20   0.00404
 19-17   0.00404 19-18   0.00000 19-19   0.00000 19-20   0.00000
 20-17   0.00000 20-18   0.00404 20-19   0.00000 20-20   0.00000

 Large bond indices
 ------------------
  1   C -  3   C    1.26324
  1   C -  6   C    1.26226
  1   C - 12   C    1.16858
  2   C -  4   C    1.26324
  2   C -  5   C    1.26226
  2   C - 11   C    1.16858
  3   C -  5   C    1.55327
  3   C -  7   H    0.95236
  4   C -  6   C    1.55327
  4   C -  8   H    0.95236
  5   C -  9   H    0.95163
  6   C - 10   H    0.95163
 11   C - 13   H    0.95004
 11   C - 15   C    1.70493
 12   C - 14   H    0.95004
 12   C - 16   C    1.70493
 15   C - 17   H    0.95731
 15   C - 19   H    0.95593
 16   C - 18   H    0.95731
 16   C - 20   H    0.95593

                                                                Free electrons             Valency
                              Number of         Sum of          + Bond indices         - Bond indices    
                Valency     Free electrons    Bond indices     =Mulliken charge     = Net spin population
     1  C       3.95709        2.02300          3.92123           5.94423                 0.03586
     2  C       3.95709        2.02300          3.92123           5.94423                 0.03586
     3  C       3.95608        2.08332          3.95544           6.03875                 0.00064
     4  C       3.95608        2.08332          3.95544           6.03876                 0.00064
     5  C       3.95814        2.08342          3.95706           6.04048                 0.00108
     6  C       3.95814        2.08341          3.95706           6.04047                 0.00108
     7  H       0.98378       -0.11114          0.98378           0.87264                 0.00000
     8  H       0.98378       -0.11114          0.98378           0.87263                 0.00000
     9  H       0.98483       -0.10801          0.98482           0.87681                 0.00000
    10  H       0.98483       -0.10801          0.98482           0.87682                 0.00000
    11  C       3.95561        2.08577          3.95438           6.04015                 0.00122
    12  C       3.95561        2.08576          3.95438           6.04015                 0.00122
    13  H       0.98449       -0.10902          0.98449           0.87547                 0.00000
    14  H       0.98449       -0.10902          0.98449           0.87547                 0.00000
    15  C       3.91093        2.24818          3.82860           6.07677                 0.08233
    16  C       3.91093        2.24817          3.82860           6.07677                 0.08233
    17  H       0.98472       -0.10813          0.98451           0.87639                 0.00021
    18  H       0.98472       -0.10813          0.98451           0.87639                 0.00021
    19  H       0.97992       -0.12140          0.97970           0.85831                 0.00022
    20  H       0.97992       -0.12140          0.97970           0.85831                 0.00022

 Task  times  cpu:      290.8s     wall:      299.0s
 Summary of allocated global arrays
-----------------------------------
  No active global arrays



                         GA Statistics for process    0
                         ------------------------------

       create   destroy   get      put      acc     scatter   gather  read&inc
calls: 1121     1121     1.41e+06 5363     1.02e+06  840        0        0     
number of processes/call 1.00e+00 1.00e+00 1.00e+00 1.00e+00 0.00e+00
bytes total:             1.38e+08 9.42e+06 8.65e+07 6.18e+04 0.00e+00 0.00e+00
bytes remote:            0.00e+00 0.00e+00 0.00e+00 0.00e+00 0.00e+00 0.00e+00
Max memory consumed for GA by this process: 1872000 bytes
MA_summarize_allocated_blocks: starting scan ...
MA_summarize_allocated_blocks: scan completed: 0 heap blocks, 0 stack blocks
MA usage statistics:

	allocation statistics:
					      heap	     stack
					      ----	     -----
	current number of blocks	         0	         0
	maximum number of blocks	        22	        48
	current total bytes		         0	         0
	maximum total bytes		  28339000	  22520792
	maximum total K-bytes		     28339	     22521
	maximum total M-bytes		        29	        23


                                NWChem Input Module
                                -------------------





                                     CITATION
                                     --------
                Please cite the following reference when publishing
                           results obtained with NWChem:

                 M. Valiev, E.J. Bylaska, N. Govind, K. Kowalski,
              T.P. Straatsma, H.J.J. van Dam, D. Wang, J. Nieplocha,
                        E. Apra, T.L. Windus, W.A. de Jong
                 "NWChem: a comprehensive and scalable open-source
                  solution for large scale molecular simulations"
                      Comput. Phys. Commun. 181, 1477 (2010)
                           doi:10.1016/j.cpc.2010.04.018

                              AUTHORS & CONTRIBUTORS
                              ----------------------
      E. J. Bylaska, W. A. de Jong, N. Govind, K. Kowalski, T. P. Straatsma,
     M. Valiev, H. J. J. van Dam, D. Wang, E. Apra, T. L. Windus, J. Hammond,
     J. Autschbach, P. Nichols, S. Hirata, M. T. Hackler, Y. Zhao, P.-D. Fan,
      R. J. Harrison, M. Dupuis, D. M. A. Smith, K. Glaesemann, J. Nieplocha,
      V. Tipparaju, M. Krishnan, A. Vazquez-Mayagoitia, L. Jensen, M. Swart,
      Q. Wu, T. Van Voorhis, A. A. Auer, M. Nooijen, L. D. Crosby, E. Brown,
             G. Cisneros, G. I. Fann, H. Fruchtl, J. Garza, K. Hirao,
        R. Kendall, J. A. Nichols, K. Tsemekhman, K. Wolinski, J. Anchell,
       D. Bernholdt, P. Borowski, T. Clark, D. Clerc, H. Dachsel, M. Deegan,
        K. Dyall, D. Elwood, E. Glendening, M. Gutowski, A. Hess, J. Jaffe,
        B. Johnson, J. Ju, R. Kobayashi, R. Kutteh, Z. Lin, R. Littlefield,
    X. Long, B. Meng, T. Nakajima, S. Niu, L. Pollack, M. Rosing, G. Sandrone,
       M. Stave, H. Taylor, G. Thomas, J. H. van Lenthe, A. Wong, Z. Zhang.

 Total times  cpu:      290.8s     wall:      299.0s
