    nwchem, len=6
dvb_gopt_ks.nw, len=14
 argument  1 = dvb_gopt_ks.nw
                                         
                                         


              Northwest Computational Chemistry Package (NWChem) 6.0
              ------------------------------------------------------


                    Environmental Molecular Sciences Laboratory
                       Pacific Northwest National Laboratory
                                Richland, WA 99352

                              Copyright (c) 1994-2010
                       Pacific Northwest National Laboratory
                            Battelle Memorial Institute

             NWChem is an open-source computational chemistry package
                        distributed under the terms of the
                      Educational Community License (ECL) 2.0
             A copy of the license is included with this distribution
                              in the LICENSE.TXT file

                                  ACKNOWLEDGMENT
                                  --------------

            This software and its documentation were developed at the
            EMSL at Pacific Northwest National Laboratory, a multiprogram
            national laboratory, operated for the U.S. Department of Energy
            by Battelle under Contract Number DE-AC05-76RL01830. Support
            for this work was provided by the Department of Energy Office
            of Biological and Environmental Research, Office of Basic
            Energy Sciences, and the Office of Advanced Scientific Computing.


           Job information
           ---------------

    hostname      = helena
    program       = nwchem
    date          = Sun Mar 23 18:27:25 2014

    compiled      = Thu_May_05_12:06:54_2011
    source        = /build/buildd/nwchem-6.0
    nwchem branch = 6.0
    input         = dvb_gopt_ks.nw
    prefix        = dvb.
    data base     = ./dvb.db
    status        = startup
    nproc         =        1
    time left     =     -1s



           Memory information
           ------------------

    heap     =   13107201 doubles =    100.0 Mbytes
    stack    =   13107201 doubles =    100.0 Mbytes
    global   =   26214400 doubles =    200.0 Mbytes (distinct from heap & stack)
    total    =   52428802 doubles =    400.0 Mbytes
    verify   = yes
    hardfail = no 


           Directory information
           ---------------------

  0 permanent = .
  0 scratch   = .




                                NWChem Input Module
                                -------------------


                        Divinylbenzene in STO-3G basis set
                        ----------------------------------

 Scaling coordinates for geometry "geometry" by  1.889725989
 (inverse scale =  0.529177249)

 C2H symmetry detected

          ------
          auto-z
          ------


                             Geometry "geometry" -> ""
                             -------------------------

 Output coordinates in angstroms (scale by  1.889725989 to convert to a.u.)

  No.       Tag          Charge          X              Y              Z
 ---- ---------------- ---------- -------------- -------------- --------------
    1 C                    6.0000     0.23680554     1.41416660     0.00000000
    2 C                    6.0000    -0.23680554    -1.41416660     0.00000000
    3 C                    6.0000     1.31675086     0.48901061     0.00000000
    4 C                    6.0000    -1.31675086    -0.48901061     0.00000000
    5 C                    6.0000     1.08679847    -0.89447642     0.00000000
    6 C                    6.0000    -1.08679847     0.89447642     0.00000000
    7 H                    1.0000     2.34780221     0.86863451     0.00000000
    8 H                    1.0000    -2.34780221    -0.86863451     0.00000000
    9 H                    1.0000     1.93764188    -1.58693865     0.00000000
   10 H                    1.0000    -1.93764188     1.58693865     0.00000000
   11 C                    6.0000    -0.53450789    -2.88212824     0.00000000
   12 C                    6.0000     0.53450789     2.88212824     0.00000000
   13 H                    1.0000    -1.60655769    -3.13289308     0.00000000
   14 H                    1.0000     1.60655769     3.13289308     0.00000000
   15 C                    6.0000     0.36419263    -3.88177971     0.00000000
   16 C                    6.0000    -0.36419263     3.88177971     0.00000000
   17 H                    1.0000     1.44522900    -3.70144241     0.00000000
   18 H                    1.0000    -1.44522900     3.70144241     0.00000000
   19 H                    1.0000     0.04815351    -4.93192286     0.00000000
   20 H                    1.0000    -0.04815351     4.93192286     0.00000000

      Atomic Mass 
      ----------- 

      C                 12.000000
      H                  1.007825


 Effective nuclear repulsion energy (a.u.)     445.9370121674

            Nuclear Dipole moment (a.u.) 
            ----------------------------
        X                 Y               Z
 ---------------- ---------------- ----------------
     0.0000000000     0.0000000000     0.0000000000

      Symmetry information
      --------------------

 Group name             C2h       
 Group number             21
 Group order               4
 No. of unique centers    10

      Symmetry unique atoms

     1    3    5    7    9   11   13   15   17   19



                                Z-matrix (autoz)
                                -------- 

 Units are Angstrom for bonds and degrees for angles

      Type          Name      I     J     K     L     M      Value
      ----------- --------  ----- ----- ----- ----- ----- ----------
    1 Stretch                  1     3                       1.42204
    2 Stretch                  1     6                       1.42197
    3 Stretch                  1    12                       1.49784
    4 Stretch                  2     4                       1.42204
    5 Stretch                  2     5                       1.42197
    6 Stretch                  2    11                       1.49784
    7 Stretch                  3     5                       1.40247
    8 Stretch                  3     7                       1.09872
    9 Stretch                  4     6                       1.40247
   10 Stretch                  4     8                       1.09872
   11 Stretch                  5     9                       1.09701
   12 Stretch                  6    10                       1.09701
   13 Stretch                 11    13                       1.10099
   14 Stretch                 11    15                       1.34423
   15 Stretch                 12    14                       1.10099
   16 Stretch                 12    16                       1.34423
   17 Stretch                 15    17                       1.09597
   18 Stretch                 15    19                       1.09667
   19 Stretch                 16    18                       1.09597
   20 Stretch                 16    20                       1.09667
   21 Bend                     1     3     5               121.14867
   22 Bend                     1     3     7               119.20109
   23 Bend                     1     6     4               120.87358
   24 Bend                     1     6    10               119.42285
   25 Bend                     1    12    14               114.62953
   26 Bend                     1    12    16               126.57992
   27 Bend                     2     4     6               121.14867
   28 Bend                     2     4     8               119.20109
   29 Bend                     2     5     3               120.87358
   30 Bend                     2     5     9               119.42285
   31 Bend                     2    11    13               114.62953
   32 Bend                     2    11    15               126.57992
   33 Bend                     3     1     6               117.97776
   34 Bend                     3     1    12               119.12155
   35 Bend                     3     5     9               119.70357
   36 Bend                     4     2     5               117.97776
   37 Bend                     4     2    11               119.12155
   38 Bend                     4     6    10               119.70357
   39 Bend                     5     2    11               122.90069
   40 Bend                     5     3     7               119.65024
   41 Bend                     6     1    12               122.90069
   42 Bend                     6     4     8               119.65024
   43 Bend                    11    15    17               122.48517
   44 Bend                    11    15    19               121.29492
   45 Bend                    12    16    18               122.48517
   46 Bend                    12    16    20               121.29492
   47 Bend                    13    11    15               118.79054
   48 Bend                    14    12    16               118.79054
   49 Bend                    17    15    19               116.21990
   50 Bend                    18    16    20               116.21990
   51 Torsion                  1     3     5     2           0.00000
   52 Torsion                  1     3     5     9         180.00000
   53 Torsion                  1     6     4     2           0.00000
   54 Torsion                  1     6     4     8         180.00000
   55 Torsion                  1    12    16    18           0.00000
   56 Torsion                  1    12    16    20         180.00000
   57 Torsion                  2     4     6    10         180.00000
   58 Torsion                  2     5     3     7         180.00000
   59 Torsion                  2    11    15    17           0.00000
   60 Torsion                  2    11    15    19         180.00000
   61 Torsion                  3     1     6     4           0.00000
   62 Torsion                  3     1     6    10         180.00000
   63 Torsion                  3     1    12    14           0.00000
   64 Torsion                  3     1    12    16         180.00000
   65 Torsion                  3     5     2     4           0.00000
   66 Torsion                  3     5     2    11         180.00000
   67 Torsion                  4     2     5     9         180.00000
   68 Torsion                  4     2    11    13           0.00000
   69 Torsion                  4     2    11    15         180.00000
   70 Torsion                  4     6     1    12         180.00000
   71 Torsion                  5     2     4     6          -0.00000
   72 Torsion                  5     2     4     8         180.00000
   73 Torsion                  5     2    11    13         180.00000
   74 Torsion                  5     2    11    15           0.00000
   75 Torsion                  5     3     1     6           0.00000
   76 Torsion                  5     3     1    12         180.00000
   77 Torsion                  6     1     3     7         180.00000
   78 Torsion                  6     1    12    14         180.00000
   79 Torsion                  6     1    12    16           0.00000
   80 Torsion                  6     4     2    11         180.00000
   81 Torsion                  7     3     1    12          -0.00000
   82 Torsion                  7     3     5     9           0.00000
   83 Torsion                  8     4     2    11          -0.00000
   84 Torsion                  8     4     6    10           0.00000
   85 Torsion                  9     5     2    11           0.00000
   86 Torsion                 10     6     1    12           0.00000
   87 Torsion                 13    11    15    17         180.00000
   88 Torsion                 13    11    15    19          -0.00000
   89 Torsion                 14    12    16    18         180.00000
   90 Torsion                 14    12    16    20          -0.00000


            XYZ format geometry
            -------------------
    20
 geometry
 C                     0.23680554     1.41416660     0.00000000
 C                    -0.23680554    -1.41416660     0.00000000
 C                     1.31675086     0.48901061     0.00000000
 C                    -1.31675086    -0.48901061     0.00000000
 C                     1.08679847    -0.89447642     0.00000000
 C                    -1.08679847     0.89447642     0.00000000
 H                     2.34780221     0.86863451     0.00000000
 H                    -2.34780221    -0.86863451     0.00000000
 H                     1.93764188    -1.58693865     0.00000000
 H                    -1.93764188     1.58693865     0.00000000
 C                    -0.53450789    -2.88212824     0.00000000
 C                     0.53450789     2.88212824     0.00000000
 H                    -1.60655769    -3.13289308     0.00000000
 H                     1.60655769     3.13289308     0.00000000
 C                     0.36419263    -3.88177971     0.00000000
 C                    -0.36419263     3.88177971     0.00000000
 H                     1.44522900    -3.70144241     0.00000000
 H                    -1.44522900     3.70144241     0.00000000
 H                     0.04815351    -4.93192286     0.00000000
 H                    -0.04815351     4.93192286     0.00000000

 ==============================================================================
                                internuclear distances
 ------------------------------------------------------------------------------
       center one      |      center two      | atomic units |  angstroms
 ------------------------------------------------------------------------------
    3 C                |   1 C                |     2.68726  |     1.42204
    4 C                |   2 C                |     2.68726  |     1.42204
    5 C                |   2 C                |     2.68714  |     1.42197
    5 C                |   3 C                |     2.65028  |     1.40247
    6 C                |   1 C                |     2.68714  |     1.42197
    6 C                |   4 C                |     2.65028  |     1.40247
    7 H                |   3 C                |     2.07628  |     1.09872
    8 H                |   4 C                |     2.07628  |     1.09872
    9 H                |   5 C                |     2.07305  |     1.09701
   10 H                |   6 C                |     2.07305  |     1.09701
   11 C                |   2 C                |     2.83052  |     1.49784
   12 C                |   1 C                |     2.83052  |     1.49784
   13 H                |  11 C                |     2.08056  |     1.10099
   14 H                |  12 C                |     2.08056  |     1.10099
   15 C                |  11 C                |     2.54023  |     1.34423
   16 C                |  12 C                |     2.54023  |     1.34423
   17 H                |  15 C                |     2.07109  |     1.09597
   18 H                |  16 C                |     2.07109  |     1.09597
   19 H                |  15 C                |     2.07240  |     1.09667
   20 H                |  16 C                |     2.07240  |     1.09667
 ------------------------------------------------------------------------------
                         number of included internuclear distances:         20
 ==============================================================================



 ==============================================================================
                                 internuclear angles
 ------------------------------------------------------------------------------
        center 1       |       center 2       |       center 3       |  degrees
 ------------------------------------------------------------------------------
    3 C                |   1 C                |   6 C                |   117.98
    3 C                |   1 C                |  12 C                |   119.12
    6 C                |   1 C                |  12 C                |   122.90
    4 C                |   2 C                |   5 C                |   117.98
    4 C                |   2 C                |  11 C                |   119.12
    5 C                |   2 C                |  11 C                |   122.90
    1 C                |   3 C                |   5 C                |   121.15
    1 C                |   3 C                |   7 H                |   119.20
    5 C                |   3 C                |   7 H                |   119.65
    2 C                |   4 C                |   6 C                |   121.15
    2 C                |   4 C                |   8 H                |   119.20
    6 C                |   4 C                |   8 H                |   119.65
    2 C                |   5 C                |   3 C                |   120.87
    2 C                |   5 C                |   9 H                |   119.42
    3 C                |   5 C                |   9 H                |   119.70
    1 C                |   6 C                |   4 C                |   120.87
    1 C                |   6 C                |  10 H                |   119.42
    4 C                |   6 C                |  10 H                |   119.70
    2 C                |  11 C                |  13 H                |   114.63
    2 C                |  11 C                |  15 C                |   126.58
   13 H                |  11 C                |  15 C                |   118.79
    1 C                |  12 C                |  14 H                |   114.63
    1 C                |  12 C                |  16 C                |   126.58
   14 H                |  12 C                |  16 C                |   118.79
   11 C                |  15 C                |  17 H                |   122.49
   11 C                |  15 C                |  19 H                |   121.29
   17 H                |  15 C                |  19 H                |   116.22
   12 C                |  16 C                |  18 H                |   122.49
   12 C                |  16 C                |  20 H                |   121.29
   18 H                |  16 C                |  20 H                |   116.22
 ------------------------------------------------------------------------------
                            number of included internuclear angles:         30
 ==============================================================================





 Summary of "ao basis" -> "" (cartesian)
 ------------------------------------------------------------------------------
       Tag                 Description            Shells   Functions and Types
 ---------------- ------------------------------  ------  ---------------------
 *                           sto-3g                   on all atoms 




                           NWChem Geometry Optimization
                           ----------------------------




                        Divinylbenzene in STO-3G basis set


 maximum gradient threshold         (gmax) =   0.000450
 rms gradient threshold             (grms) =   0.000300
 maximum cartesian step threshold   (xmax) =   0.001800
 rms cartesian step threshold       (xrms) =   0.001200
 fixed trust radius                (trust) =   0.300000
 maximum step size to saddle      (sadstp) =   0.100000
 energy precision                  (eprec) =   5.0D-06
 maximum number of steps          (nptopt) =   20
 initial hessian option           (inhess) =    0
 line search option               (linopt) =    1
 hessian update option            (modupd) =    1
 saddle point option              (modsad) =    0
 initial eigen-mode to follow     (moddir) =    0
 initial variable to follow       (vardir) =    0
 follow first negative mode     (firstneg) =    T
 apply conjugacy                    (opcg) =    F
 source of zmatrix                         =   autoz   


          -------------------
          Energy Minimization
          -------------------


 Names of Z-matrix variables 
    1              2              3              4              5         
    6              7              8              9             10         
   11             12             13             14             15         
   16             17             18             19             20         
   21             22             23             24             25         
   26             27             28             29             30         
   31             32             33             34             35         
   36             37             38             39             40         
   41             42             43             44             45         
   46             47             48             49             50         
   51             52             53             54             55         
   56             57             58             59             60         
   61             62             63             64             65         
   66             67             68             69             70         
   71             72             73             74             75         
   76             77             78             79             80         
   81             82             83             84             85         
   86             87             88             89             90         

 Variables with the same non-blank name are constrained to be equal


 Using diagonal initial Hessian 
 Scaling for Hessian diagonals: bonds = 1.00  angles = 0.25  torsions = 0.10

          --------
          Step   0
          --------


                         Geometry "geometry" -> "geometry"
                         ---------------------------------

 Output coordinates in angstroms (scale by  1.889725989 to convert to a.u.)

  No.       Tag          Charge          X              Y              Z
 ---- ---------------- ---------- -------------- -------------- --------------
    1 C                    6.0000     0.23680554     1.41416660     0.00000000
    2 C                    6.0000    -0.23680554    -1.41416660     0.00000000
    3 C                    6.0000     1.31675086     0.48901061     0.00000000
    4 C                    6.0000    -1.31675086    -0.48901061     0.00000000
    5 C                    6.0000     1.08679847    -0.89447642     0.00000000
    6 C                    6.0000    -1.08679847     0.89447642     0.00000000
    7 H                    1.0000     2.34780221     0.86863451     0.00000000
    8 H                    1.0000    -2.34780221    -0.86863451     0.00000000
    9 H                    1.0000     1.93764188    -1.58693865     0.00000000
   10 H                    1.0000    -1.93764188     1.58693865     0.00000000
   11 C                    6.0000    -0.53450789    -2.88212824     0.00000000
   12 C                    6.0000     0.53450789     2.88212824     0.00000000
   13 H                    1.0000    -1.60655769    -3.13289308     0.00000000
   14 H                    1.0000     1.60655769     3.13289308     0.00000000
   15 C                    6.0000     0.36419263    -3.88177971     0.00000000
   16 C                    6.0000    -0.36419263     3.88177971     0.00000000
   17 H                    1.0000     1.44522900    -3.70144241     0.00000000
   18 H                    1.0000    -1.44522900     3.70144241     0.00000000
   19 H                    1.0000     0.04815351    -4.93192286     0.00000000
   20 H                    1.0000    -0.04815351     4.93192286     0.00000000

      Atomic Mass 
      ----------- 

      C                 12.000000
      H                  1.007825


 Effective nuclear repulsion energy (a.u.)     445.9370121674

            Nuclear Dipole moment (a.u.) 
            ----------------------------
        X                 Y               Z
 ---------------- ---------------- ----------------
     0.0000000000     0.0000000000     0.0000000000

      Symmetry information
      --------------------

 Group name             C2h       
 Group number             21
 Group order               4
 No. of unique centers    10

      Symmetry unique atoms

     1    3    5    7    9   11   13   15   17   19


                                 NWChem DFT Module
                                 -----------------


                        Divinylbenzene in STO-3G basis set


                      Basis "ao basis" -> "ao basis" (cartesian)
                      -----
  C (Carbon)
  ----------
            Exponent  Coefficients 
       -------------- ---------------------------------------------------------
  1 S  7.16168370E+01  0.154329
  1 S  1.30450960E+01  0.535328
  1 S  3.53051220E+00  0.444635

  2 S  2.94124940E+00 -0.099967
  2 S  6.83483100E-01  0.399513
  2 S  2.22289900E-01  0.700115

  3 P  2.94124940E+00  0.155916
  3 P  6.83483100E-01  0.607684
  3 P  2.22289900E-01  0.391957

  H (Hydrogen)
  ------------
            Exponent  Coefficients 
       -------------- ---------------------------------------------------------
  1 S  3.42525091E+00  0.154329
  1 S  6.23913730E-01  0.535328
  1 S  1.68855400E-01  0.444635



 Summary of "ao basis" -> "ao basis" (cartesian)
 ------------------------------------------------------------------------------
       Tag                 Description            Shells   Functions and Types
 ---------------- ------------------------------  ------  ---------------------
 C                           sto-3g                  3        5   2s1p
 H                           sto-3g                  1        1   1s


  Caching 1-el integrals 

            General Information
            -------------------
          SCF calculation type: DFT
          Wavefunction type:  closed shell.
          No. of atoms     :    20
          No. of electrons :    70
           Alpha electrons :    35
            Beta electrons :    35
          Charge           :     0
          Spin multiplicity:     1
          Use of symmetry is: on ; symmetry adaption is: on 
          Maximum number of iterations:  30
          AO basis - number of functions:    60
                     number of shells:    40
          Convergence on energy requested: 1.00D-06
          Convergence on density requested: 1.00D-05
          Convergence on gradient requested: 5.00D-04

              XC Information
              --------------
                         B3LYP Method XC Potential
                     Hartree-Fock (Exact) Exchange  0.200          
                        Slater Exchange Functional  0.800 local    
                    Becke 1988 Exchange Functional  0.720 non-local
              Lee-Yang-Parr Correlation Functional  0.810          
                  VWN I RPA Correlation Functional  0.190 local    

             Grid Information
             ----------------
          Grid used for XC integration:  medium    
          Radial quadrature: Mura-Knowles        
          Angular quadrature: Lebedev. 
          Tag              B.-S. Rad. Rad. Pts. Rad. Cut. Ang. Pts.
          ---              ---------- --------- --------- ---------
          C                   0.70       49          12.0       434
          H                   0.35       45          12.0       434
          Grid pruning is: on 
          Number of quadrature shells:   470
          Spatial weights used:  Erf1

          Convergence Information
          -----------------------
          Convergence aids based upon iterative change in 
          total energy or number of iterations. 
          Levelshifting, if invoked, occurs when the 
          HOMO/LUMO gap drops below (HL_TOL): 1.00D-02
          DIIS, if invoked, will attempt to extrapolate 
          using up to (NFOCK): 10 stored Fock matrices.

                    Damping( 0%)  Levelshifting(0.5)       DIIS
                  --------------- ------------------- ---------------
          dE  on:    start            ASAP                start   
          dE off:    2 iters         30 iters            30 iters 


      Screening Tolerance Information
      -------------------------------
          Density screening/tol_rho: 1.00D-10
          AO Gaussian exp screening on grid/accAOfunc:  14
          CD Gaussian exp screening on grid/accCDfunc:  20
          XC Gaussian exp screening on grid/accXCfunc:  20
          Schwarz screening/accCoul: 1.00D-08


      Superposition of Atomic Density Guess
      -------------------------------------

 Sum of atomic energies:        -376.44825176

      Non-variational initial energy
      ------------------------------

 Total energy =    -379.429467
 1-e energy   =   -1401.451096
 2-e energy   =     576.084617
 HOMO         =      -0.037645
 LUMO         =       0.163723


      Symmetry analysis of molecular orbitals - initial
      -------------------------------------------------

  Numbering of irreducible representations: 

     1 ag          2 au          3 bg          4 bu      

  Orbital symmetries:

     1 ag          2 bu          3 ag          4 bu          5 bu      
     6 ag          7 bu          8 ag          9 bu         10 ag      
    11 ag         12 bu         13 ag         14 bu         15 bu      
    16 ag         17 ag         18 bu         19 ag         20 ag      
    21 bu         22 bu         23 ag         24 bu         25 bu      
    26 ag         27 bu         28 au         29 bu         30 ag      
    31 ag         32 bg         33 au         34 bg         35 bg      
    36 au         37 au         38 bg         39 au         40 bg      
    41 ag         42 bu         43 bu         44 ag         45 bu      

   Time after variat. SCF:      0.5
   Time prior to 1st pass:      0.5

 Integral file          = ./dvb.aoints.0
 Record size in doubles =  65536        No. of integs per rec  =  43688
 Max. records in memory =     19        Max. records in file   = ******
 No. of bits per label  =      8        No. of bits per value  =     64


 #quartets = 1.167D+05 #integrals = 3.473D+05 #direct =  0.0% #cached =100.0%


 Grid_pts file          = ./dvb.gridpts.0
 Record size in doubles =  12289        No. of grid_pts per rec  =   3070
 Max. records in memory =     75        Max. recs in file   =  11658515


           Memory utilization after 1st SCF pass: 
           Heap Space remaining (MW):       10.94            10936781
          Stack Space remaining (MW):       13.11            13106305

   convergence    iter        energy       DeltaE   RMS-Dens  Diis-err    time
 ---------------- ----- ----------------- --------- --------- ---------  ------
 d= 0,ls=0.0,diis     1   -382.2544280486 -8.28D+02  1.42D-02  3.78D-01     3.1
 d= 0,ls=0.0,diis     2   -382.3017259143 -4.73D-02  6.99D-03  3.82D-02     3.9
 d= 0,ls=0.0,diis     3   -382.2954279018  6.30D-03  4.21D-03  7.95D-02     4.8
 d= 0,ls=0.0,diis     4   -382.3080933907 -1.27D-02  5.17D-04  8.80D-04     5.7
 d= 0,ls=0.0,diis     5   -382.3082297621 -1.36D-04  1.18D-04  4.46D-05     6.6
 d= 0,ls=0.0,diis     6   -382.3082358989 -6.14D-06  3.18D-05  3.09D-06     7.4
 d= 0,ls=0.0,diis     7   -382.3082363755 -4.77D-07  7.08D-06  1.61D-07     8.5


         Total DFT energy =     -382.308236375541
      One electron energy =    -1400.644788627800
           Coulomb energy =      630.242459300651
    Exchange-Corr. energy =      -57.842919215838
 Nuclear repulsion energy =      445.937012167446

 Numeric. integr. density =       69.999956105825

     Total iterative time =      8.0s



                       DFT Final Molecular Orbital Analysis
                       ------------------------------------

 Vector   10  Occ=2.000000D+00  E=-9.992163D+00  Symmetry=ag
              MO Center=  0.0D+00, -4.4D-16, -8.1D-18, r^2= 1.5D+01
   Bfn.  Coefficient  Atom+Function         Bfn.  Coefficient  Atom+Function  
  ----- ------------  ---------------      ----- ------------  ---------------
    47     -0.700478  15 C  s                52     -0.700478  16 C  s         

 Vector   11  Occ=2.000000D+00  E=-8.094655D-01  Symmetry=ag
              MO Center= -4.0D-15,  5.6D-15,  3.0D-18, r^2= 3.0D+00
   Bfn.  Coefficient  Atom+Function         Bfn.  Coefficient  Atom+Function  
  ----- ------------  ---------------      ----- ------------  ---------------
     2      0.274703   1 C  s                 7      0.274703   2 C  s         
    12      0.247021   3 C  s                17      0.247021   4 C  s         
    27      0.246682   6 C  s                22      0.246682   5 C  s         

 Vector   12  Occ=2.000000D+00  E=-7.539369D-01  Symmetry=bu
              MO Center= -6.2D-17, -4.7D-15,  3.3D-21, r^2= 7.8D+00
   Bfn.  Coefficient  Atom+Function         Bfn.  Coefficient  Atom+Function  
  ----- ------------  ---------------      ----- ------------  ---------------
    36      0.297173  11 C  s                41     -0.297173  12 C  s         
     7      0.273785   2 C  s                 2     -0.273785   1 C  s         
    48      0.209310  15 C  s                53     -0.209310  16 C  s         

 Vector   13  Occ=2.000000D+00  E=-7.178632D-01  Symmetry=ag
              MO Center=  6.9D-17,  5.6D-16,  4.5D-33, r^2= 1.1D+01
   Bfn.  Coefficient  Atom+Function         Bfn.  Coefficient  Atom+Function  
  ----- ------------  ---------------      ----- ------------  ---------------
    41      0.314819  12 C  s                36      0.314819  11 C  s         
    48      0.309763  15 C  s                53      0.309763  16 C  s         

 Vector   14  Occ=2.000000D+00  E=-6.999241D-01  Symmetry=bu
              MO Center=  3.9D-15, -4.9D-16,  1.4D-31, r^2= 3.2D+00
   Bfn.  Coefficient  Atom+Function         Bfn.  Coefficient  Atom+Function  
  ----- ------------  ---------------      ----- ------------  ---------------
    12      0.357143   3 C  s                17     -0.357143   4 C  s         
    22      0.323891   5 C  s                27     -0.323891   6 C  s         

 Vector   15  Occ=2.000000D+00  E=-6.673155D-01  Symmetry=bu
              MO Center=  1.9D-16, -2.9D-15,  4.7D-20, r^2= 9.1D+00
   Bfn.  Coefficient  Atom+Function         Bfn.  Coefficient  Atom+Function  
  ----- ------------  ---------------      ----- ------------  ---------------
    53      0.299502  16 C  s                48     -0.299502  15 C  s         
     7      0.274066   2 C  s                 2     -0.274066   1 C  s         
    22      0.202301   5 C  s                27     -0.202301   6 C  s         

 Vector   16  Occ=2.000000D+00  E=-5.885105D-01  Symmetry=ag
              MO Center=  2.8D-17, -4.3D-15,  1.5D-16, r^2= 8.4D+00
   Bfn.  Coefficient  Atom+Function         Bfn.  Coefficient  Atom+Function  
  ----- ------------  ---------------      ----- ------------  ---------------
    48      0.241409  15 C  s                53      0.241409  16 C  s         
    22      0.233814   5 C  s                27      0.233814   6 C  s         
     7     -0.206376   2 C  s                 2     -0.206376   1 C  s         
    14     -0.160008   3 C  py               19      0.160008   4 C  py        
    36     -0.159611  11 C  s                41     -0.159611  12 C  s         

 Vector   17  Occ=2.000000D+00  E=-5.591526D-01  Symmetry=ag
              MO Center= -5.7D-16,  9.4D-16, -1.2D-32, r^2= 5.1D+00
   Bfn.  Coefficient  Atom+Function         Bfn.  Coefficient  Atom+Function  
  ----- ------------  ---------------      ----- ------------  ---------------
    17      0.326032   4 C  s                12      0.326032   3 C  s         
     3      0.184863   1 C  px                8     -0.184863   2 C  px        
    27     -0.170748   6 C  s                22     -0.170748   5 C  s         
    29     -0.170439   6 C  py               24      0.170439   5 C  py        
    32      0.169238   8 H  s                31      0.169238   7 H  s         

 Vector   18  Occ=2.000000D+00  E=-5.314225D-01  Symmetry=bu
              MO Center= -6.9D-16,  4.2D-15, -1.5D-17, r^2= 1.2D+01
   Bfn.  Coefficient  Atom+Function         Bfn.  Coefficient  Atom+Function  
  ----- ------------  ---------------      ----- ------------  ---------------
    41     -0.302765  12 C  s                36      0.302765  11 C  s         
    53      0.249169  16 C  s                48     -0.249169  15 C  s         
    46     -0.170518  14 H  s                45      0.170518  13 H  s         
    58      0.160625  18 H  s                57     -0.160625  17 H  s         
    17     -0.154465   4 C  s                12      0.154465   3 C  s         

 Vector   19  Occ=2.000000D+00  E=-5.099373D-01  Symmetry=ag
              MO Center=  8.6D-16,  4.4D-16,  2.1D-16, r^2= 7.5D+00
   Bfn.  Coefficient  Atom+Function         Bfn.  Coefficient  Atom+Function  
  ----- ------------  ---------------      ----- ------------  ---------------
    28      0.201888   6 C  px               23     -0.201888   5 C  px        
    13     -0.184492   3 C  px               18      0.184492   4 C  px        
    36     -0.180763  11 C  s                41     -0.180763  12 C  s         
    34     -0.169275  10 H  s                33     -0.169275   9 H  s         
    27     -0.166026   6 C  s                22     -0.166026   5 C  s         

 Vector   20  Occ=2.000000D+00  E=-4.576006D-01  Symmetry=ag
              MO Center=  1.7D-16,  1.3D-15,  2.7D-32, r^2= 9.5D+00
   Bfn.  Coefficient  Atom+Function         Bfn.  Coefficient  Atom+Function  
  ----- ------------  ---------------      ----- ------------  ---------------
    54     -0.212726  16 C  px               49      0.212726  15 C  px        
    43     -0.184649  12 C  py               38      0.184649  11 C  py        
    58      0.179107  18 H  s                57      0.179107  17 H  s         
    46     -0.153094  14 H  s                45     -0.153094  13 H  s         

 Vector   21  Occ=2.000000D+00  E=-4.391985D-01  Symmetry=bu
              MO Center= -3.1D-16,  7.8D-16,  7.1D-18, r^2= 1.0D+01
   Bfn.  Coefficient  Atom+Function         Bfn.  Coefficient  Atom+Function  
  ----- ------------  ---------------      ----- ------------  ---------------
    37     -0.219235  11 C  px               42     -0.219235  12 C  px        
    50     -0.210287  15 C  py               55     -0.210287  16 C  py        
    14     -0.184963   3 C  py               19     -0.184963   4 C  py        
    60     -0.178123  20 H  s                59      0.178123  19 H  s         
    46     -0.155497  14 H  s                45      0.155497  13 H  s         

 Vector   22  Occ=2.000000D+00  E=-4.110195D-01  Symmetry=bu
              MO Center= -2.2D-15, -4.2D-15,  3.7D-17, r^2= 6.8D+00
   Bfn.  Coefficient  Atom+Function         Bfn.  Coefficient  Atom+Function  
  ----- ------------  ---------------      ----- ------------  ---------------
     7      0.235304   2 C  s                 2     -0.235304   1 C  s         
    34      0.230443  10 H  s                33     -0.230443   9 H  s         
    32     -0.226672   8 H  s                31      0.226672   7 H  s         
    18      0.222284   4 C  px               13      0.222284   3 C  px        
    24      0.177957   5 C  py               29      0.177957   6 C  py        

 Vector   23  Occ=2.000000D+00  E=-3.976932D-01  Symmetry=bu
              MO Center=  1.1D-16,  4.7D-15, -1.5D-17, r^2= 8.7D+00
   Bfn.  Coefficient  Atom+Function         Bfn.  Coefficient  Atom+Function  
  ----- ------------  ---------------      ----- ------------  ---------------
    23     -0.251228   5 C  px               28     -0.251228   6 C  px        
    54     -0.250513  16 C  px               49     -0.250513  15 C  px        
     3      0.220814   1 C  px                8      0.220814   2 C  px        
    58      0.215416  18 H  s                57     -0.215416  17 H  s         
    38     -0.181489  11 C  py               43     -0.181489  12 C  py        

 Vector   24  Occ=2.000000D+00  E=-3.959389D-01  Symmetry=ag
              MO Center=  9.7D-16, -2.2D-16, -1.5D-32, r^2= 1.5D+01
   Bfn.  Coefficient  Atom+Function         Bfn.  Coefficient  Atom+Function  
  ----- ------------  ---------------      ----- ------------  ---------------
    50      0.338996  15 C  py               55     -0.338996  16 C  py        
    59     -0.262591  19 H  s                60     -0.262591  20 H  s         
    42     -0.251499  12 C  px               37      0.251499  11 C  px        

 Vector   25  Occ=2.000000D+00  E=-3.744313D-01  Symmetry=bu
              MO Center= -2.4D-15, -1.8D-16,  1.9D-18, r^2= 4.4D+00
   Bfn.  Coefficient  Atom+Function         Bfn.  Coefficient  Atom+Function  
  ----- ------------  ---------------      ----- ------------  ---------------
    18      0.307574   4 C  px               13      0.307574   3 C  px        
    32     -0.252248   8 H  s                31      0.252248   7 H  s         
    29     -0.226089   6 C  py               24     -0.226089   5 C  py        
    33      0.218207   9 H  s                34     -0.218207  10 H  s         
    23      0.188087   5 C  px               28      0.188087   6 C  px        

 Vector   26  Occ=2.000000D+00  E=-3.509384D-01  Symmetry=bu
              MO Center= -4.2D-16,  4.6D-16,  4.3D-32, r^2= 9.0D+00
   Bfn.  Coefficient  Atom+Function         Bfn.  Coefficient  Atom+Function  
  ----- ------------  ---------------      ----- ------------  ---------------
    55     -0.245677  16 C  py               50     -0.245677  15 C  py        
    19      0.224351   4 C  py               14      0.224351   3 C  py        
    37     -0.201680  11 C  px               42     -0.201680  12 C  px        
    24     -0.193264   5 C  py               29     -0.193264   6 C  py        
    43      0.187740  12 C  py               38      0.187740  11 C  py        

 Vector   27  Occ=2.000000D+00  E=-3.470162D-01  Symmetry=ag
              MO Center=  2.1D-15, -2.2D-16,  1.2D-16, r^2= 1.2D+01
   Bfn.  Coefficient  Atom+Function         Bfn.  Coefficient  Atom+Function  
  ----- ------------  ---------------      ----- ------------  ---------------
    49     -0.295190  15 C  px               54      0.295190  16 C  px        
    57     -0.268014  17 H  s                58     -0.268014  18 H  s         
    42     -0.208869  12 C  px               37      0.208869  11 C  px        
    46     -0.200225  14 H  s                45     -0.200225  13 H  s         
    31      0.156470   7 H  s                32      0.156470   8 H  s         

 Vector   28  Occ=2.000000D+00  E=-3.244709D-01  Symmetry=au
              MO Center= -5.0D-16, -4.9D-15,  1.0D-16, r^2= 3.6D+00
   Bfn.  Coefficient  Atom+Function         Bfn.  Coefficient  Atom+Function  
  ----- ------------  ---------------      ----- ------------  ---------------
    10     -0.337606   2 C  pz                5     -0.337606   1 C  pz        
    20     -0.297982   4 C  pz               15     -0.297982   3 C  pz        
    25     -0.297163   5 C  pz               30     -0.297163   6 C  pz        
    39     -0.173953  11 C  pz               44     -0.173953  12 C  pz        

 Vector   29  Occ=2.000000D+00  E=-3.110658D-01  Symmetry=bu
              MO Center=  5.3D-16, -9.3D-15,  1.2D-17, r^2= 1.2D+01
   Bfn.  Coefficient  Atom+Function         Bfn.  Coefficient  Atom+Function  
  ----- ------------  ---------------      ----- ------------  ---------------
    45      0.259097  13 H  s                46     -0.259097  14 H  s         
     9      0.241969   2 C  py                4      0.241969   1 C  py        
    57      0.231033  17 H  s                58     -0.231033  18 H  s         
    37     -0.217248  11 C  px               42     -0.217248  12 C  px        
    59     -0.212337  19 H  s                60      0.212337  20 H  s         

 Vector   30  Occ=2.000000D+00  E=-2.929849D-01  Symmetry=ag
              MO Center= -1.4D-16,  4.7D-15, -5.0D-17, r^2= 6.1D+00
   Bfn.  Coefficient  Atom+Function         Bfn.  Coefficient  Atom+Function  
  ----- ------------  ---------------      ----- ------------  ---------------
    19     -0.278192   4 C  py               14      0.278192   3 C  py        
     4     -0.268406   1 C  py                9      0.268406   2 C  py        
    43      0.248156  12 C  py               38     -0.248156  11 C  py        
    34      0.240394  10 H  s                33      0.240394   9 H  s         
    29      0.234462   6 C  py               24     -0.234462   5 C  py        

 Vector   31  Occ=2.000000D+00  E=-2.874973D-01  Symmetry=ag
              MO Center=  2.3D-15,  5.5D-15, -6.9D-17, r^2= 6.2D+00
   Bfn.  Coefficient  Atom+Function         Bfn.  Coefficient  Atom+Function  
  ----- ------------  ---------------      ----- ------------  ---------------
     3      0.295873   1 C  px                8     -0.295873   2 C  px        
    28     -0.280611   6 C  px               23      0.280611   5 C  px        
    31     -0.258070   7 H  s                32     -0.258070   8 H  s         
    13     -0.222131   3 C  px               18      0.222131   4 C  px        
    46     -0.182730  14 H  s                45     -0.182730  13 H  s         

 Vector   32  Occ=2.000000D+00  E=-2.634582D-01  Symmetry=bg
              MO Center=  1.3D-16, -1.0D-14, -4.1D-20, r^2= 7.8D+00
   Bfn.  Coefficient  Atom+Function         Bfn.  Coefficient  Atom+Function  
  ----- ------------  ---------------      ----- ------------  ---------------
    39      0.376486  11 C  pz               44     -0.376486  12 C  pz        
     5     -0.348959   1 C  pz               10      0.348959   2 C  pz        
    51      0.271399  15 C  pz               56     -0.271399  16 C  pz        

 Vector   33  Occ=2.000000D+00  E=-2.123391D-01  Symmetry=au
              MO Center=  8.3D-15,  1.0D-14,  1.3D-17, r^2= 1.1D+01
   Bfn.  Coefficient  Atom+Function         Bfn.  Coefficient  Atom+Function  
  ----- ------------  ---------------      ----- ------------  ---------------
    51     -0.417955  15 C  pz               56     -0.417955  16 C  pz        
    44     -0.413783  12 C  pz               39     -0.413783  11 C  pz        
    15      0.179212   3 C  pz               20      0.179212   4 C  pz        
    25      0.176635   5 C  pz               30      0.176635   6 C  pz        

 Vector   34  Occ=2.000000D+00  E=-1.951699D-01  Symmetry=bg
              MO Center= -6.8D-15,  8.0D-16,  7.2D-19, r^2= 2.7D+00
   Bfn.  Coefficient  Atom+Function         Bfn.  Coefficient  Atom+Function  
  ----- ------------  ---------------      ----- ------------  ---------------
    20      0.463639   4 C  pz               15     -0.463639   3 C  pz        
    30      0.457523   6 C  pz               25     -0.457523   5 C  pz        

 Vector   35  Occ=2.000000D+00  E=-1.529971D-01  Symmetry=bg
              MO Center= -1.5D-15,  2.8D-15,  2.9D-17, r^2= 8.1D+00
   Bfn.  Coefficient  Atom+Function         Bfn.  Coefficient  Atom+Function  
  ----- ------------  ---------------      ----- ------------  ---------------
    56     -0.397367  16 C  pz               51      0.397367  15 C  pz        
    10     -0.387557   2 C  pz                5      0.387557   1 C  pz        
    30      0.230771   6 C  pz               25     -0.230771   5 C  pz        
    44     -0.223673  12 C  pz               39      0.223673  11 C  pz        
    20     -0.215045   4 C  pz               15      0.215045   3 C  pz        

 Vector   36  Occ=0.000000D+00  E= 3.750822D-02  Symmetry=au
              MO Center= -1.1D-16, -3.7D-14, -1.1D-16, r^2= 8.0D+00
   Bfn.  Coefficient  Atom+Function         Bfn.  Coefficient  Atom+Function  
  ----- ------------  ---------------      ----- ------------  ---------------
    51     -0.449621  15 C  pz               56     -0.449621  16 C  pz        
    10      0.442666   2 C  pz                5      0.442666   1 C  pz        
    25     -0.277529   5 C  pz               30     -0.277529   6 C  pz        
    39      0.256135  11 C  pz               44      0.256135  12 C  pz        
    20     -0.232285   4 C  pz               15     -0.232285   3 C  pz        

 Vector   37  Occ=0.000000D+00  E= 9.011585D-02  Symmetry=au
              MO Center=  8.1D-14, -7.0D-15, -1.7D-16, r^2= 2.7D+00
   Bfn.  Coefficient  Atom+Function         Bfn.  Coefficient  Atom+Function  
  ----- ------------  ---------------      ----- ------------  ---------------
    15     -0.582682   3 C  pz               20     -0.582682   4 C  pz        
    25      0.553248   5 C  pz               30      0.553248   6 C  pz        

 Vector   38  Occ=0.000000D+00  E= 1.107252D-01  Symmetry=bg
              MO Center= -9.1D-14,  4.7D-14, -9.8D-19, r^2= 1.1D+01
   Bfn.  Coefficient  Atom+Function         Bfn.  Coefficient  Atom+Function  
  ----- ------------  ---------------      ----- ------------  ---------------
    56      0.523107  16 C  pz               51     -0.523107  15 C  pz        
    44     -0.522165  12 C  pz               39      0.522165  11 C  pz        
    20     -0.240689   4 C  pz               15      0.240689   3 C  pz        
    30      0.232247   6 C  pz               25     -0.232247   5 C  pz        

 Vector   39  Occ=0.000000D+00  E= 1.821997D-01  Symmetry=au
              MO Center=  1.5D-16, -5.3D-15,  2.9D-16, r^2= 7.9D+00
   Bfn.  Coefficient  Atom+Function         Bfn.  Coefficient  Atom+Function  
  ----- ------------  ---------------      ----- ------------  ---------------
    39      0.529129  11 C  pz               44      0.529129  12 C  pz        
    10     -0.497222   2 C  pz                5     -0.497222   1 C  pz        
    51     -0.379692  15 C  pz               56     -0.379692  16 C  pz        
    25      0.199208   5 C  pz               30      0.199208   6 C  pz        
    20      0.166734   4 C  pz               15      0.166734   3 C  pz        

 Vector   40  Occ=0.000000D+00  E= 2.723005D-01  Symmetry=bg
              MO Center=  9.1D-15,  3.9D-15, -2.3D-16, r^2= 3.8D+00
   Bfn.  Coefficient  Atom+Function         Bfn.  Coefficient  Atom+Function  
  ----- ------------  ---------------      ----- ------------  ---------------
     5      0.543478   1 C  pz               10     -0.543478   2 C  pz        
    25      0.466881   5 C  pz               30     -0.466881   6 C  pz        
    15     -0.464182   3 C  pz               20      0.464182   4 C  pz        
    44     -0.287729  12 C  pz               39      0.287729  11 C  pz        
    51     -0.156152  15 C  pz               56      0.156152  16 C  pz        

 Vector   41  Occ=0.000000D+00  E= 3.324835D-01  Symmetry=ag
              MO Center=  5.6D-17,  2.8D-16,  2.1D-17, r^2= 8.8D+00
   Bfn.  Coefficient  Atom+Function         Bfn.  Coefficient  Atom+Function  
  ----- ------------  ---------------      ----- ------------  ---------------
    33     -0.423777   9 H  s                34     -0.423777  10 H  s         
    31     -0.413785   7 H  s                32     -0.413785   8 H  s         
     7      0.401574   2 C  s                 2      0.401574   1 C  s         
    59     -0.358539  19 H  s                60     -0.358539  20 H  s         
    38     -0.338108  11 C  py               43      0.338108  12 C  py        

 Vector   42  Occ=0.000000D+00  E= 3.406430D-01  Symmetry=bu
              MO Center=  1.1D-16,  0.0D+00,  3.1D-18, r^2= 1.0D+01
   Bfn.  Coefficient  Atom+Function         Bfn.  Coefficient  Atom+Function  
  ----- ------------  ---------------      ----- ------------  ---------------
    45     -0.433825  13 H  s                46      0.433825  14 H  s         
    13     -0.355441   3 C  px               18     -0.355441   4 C  px        
    37     -0.344563  11 C  px               42     -0.344563  12 C  px        
    57      0.323127  17 H  s                58     -0.323127  18 H  s         
    31      0.321898   7 H  s                32     -0.321898   8 H  s         

 Vector   43  Occ=0.000000D+00  E= 3.795214D-01  Symmetry=bu
              MO Center=  2.8D-17, -1.4D-16, -3.1D-17, r^2= 7.8D+00
   Bfn.  Coefficient  Atom+Function         Bfn.  Coefficient  Atom+Function  
  ----- ------------  ---------------      ----- ------------  ---------------
    36     -0.546142  11 C  s                41      0.546142  12 C  s         
     4     -0.461533   1 C  py                9     -0.461533   2 C  py        
    33     -0.405556   9 H  s                34      0.405556  10 H  s         
    59     -0.351672  19 H  s                60      0.351672  20 H  s         
     7      0.338391   2 C  s                 2     -0.338391   1 C  s         

 Vector   44  Occ=0.000000D+00  E= 3.812891D-01  Symmetry=ag
              MO Center=  1.4D-14, -4.4D-16,  1.2D-16, r^2= 1.2D+01
   Bfn.  Coefficient  Atom+Function         Bfn.  Coefficient  Atom+Function  
  ----- ------------  ---------------      ----- ------------  ---------------
    46      0.579615  14 H  s                45      0.579615  13 H  s         
    12      0.393543   3 C  s                17      0.393543   4 C  s         
    57     -0.391423  17 H  s                58     -0.391423  18 H  s         
    41     -0.382178  12 C  s                36     -0.382178  11 C  s         
    42     -0.338373  12 C  px               37      0.338373  11 C  px        

 Vector   45  Occ=0.000000D+00  E= 4.103424D-01  Symmetry=ag
              MO Center= -8.3D-17, -7.2D-16, -3.0D-17, r^2= 1.1D+01
   Bfn.  Coefficient  Atom+Function         Bfn.  Coefficient  Atom+Function  
  ----- ------------  ---------------      ----- ------------  ---------------
    48     -0.647361  15 C  s                53     -0.647361  16 C  s         
    22     -0.620080   5 C  s                27     -0.620080   6 C  s         
    57      0.513328  17 H  s                58      0.513328  18 H  s         
    17      0.443651   4 C  s                12      0.443651   3 C  s         
    60      0.320791  20 H  s                59      0.320791  19 H  s         

 Vector   46  Occ=0.000000D+00  E= 4.112340D-01  Symmetry=bu
              MO Center=  2.2D-16, -2.2D-16,  1.7D-16, r^2= 1.1D+01
   Bfn.  Coefficient  Atom+Function         Bfn.  Coefficient  Atom+Function  
  ----- ------------  ---------------      ----- ------------  ---------------
    27      0.613157   6 C  s                22     -0.613157   5 C  s         
    48     -0.539742  15 C  s                53      0.539742  16 C  s         
     2     -0.476213   1 C  s                 7      0.476213   2 C  s         
    58     -0.447817  18 H  s                57      0.447817  17 H  s         
    12      0.440679   3 C  s                17     -0.440679   4 C  s         

 Vector   47  Occ=0.000000D+00  E= 4.257995D-01  Symmetry=bu
              MO Center= -5.2D-15, -6.8D-15,  2.3D-17, r^2= 9.2D+00
   Bfn.  Coefficient  Atom+Function         Bfn.  Coefficient  Atom+Function  
  ----- ------------  ---------------      ----- ------------  ---------------
    31     -0.603105   7 H  s                32      0.603105   8 H  s         
    36      0.446795  11 C  s                41     -0.446795  12 C  s         
    45     -0.437152  13 H  s                46      0.437152  14 H  s         
    17     -0.368672   4 C  s                12      0.368672   3 C  s         
    60      0.337713  20 H  s                59     -0.337713  19 H  s         

 Vector   48  Occ=0.000000D+00  E= 4.393585D-01  Symmetry=ag
              MO Center= -9.8D-15,  8.4D-14, -6.7D-16, r^2= 7.5D+00
   Bfn.  Coefficient  Atom+Function         Bfn.  Coefficient  Atom+Function  
  ----- ------------  ---------------      ----- ------------  ---------------
     2      0.782316   1 C  s                 7      0.782316   2 C  s         
    41     -0.556814  12 C  s                36     -0.556814  11 C  s         
    17     -0.499681   4 C  s                12     -0.499681   3 C  s         
    27     -0.411546   6 C  s                22     -0.411546   5 C  s         
    53      0.409856  16 C  s                48      0.409856  15 C  s         

 Vector   49  Occ=0.000000D+00  E= 4.537216D-01  Symmetry=bu
              MO Center=  3.1D-15, -8.2D-14,  1.1D-17, r^2= 1.2D+01
   Bfn.  Coefficient  Atom+Function         Bfn.  Coefficient  Atom+Function  
  ----- ------------  ---------------      ----- ------------  ---------------
    48      0.706726  15 C  s                53     -0.706726  16 C  s         
    57     -0.525555  17 H  s                58      0.525555  18 H  s         
    33      0.477109   9 H  s                34     -0.477109  10 H  s         
    36     -0.428994  11 C  s                41      0.428994  12 C  s         
    22     -0.407154   5 C  s                27      0.407154   6 C  s         

 Vector   50  Occ=0.000000D+00  E= 4.783352D-01  Symmetry=ag
              MO Center=  1.9D-16,  5.6D-15,  9.9D-17, r^2= 1.1D+01
   Bfn.  Coefficient  Atom+Function         Bfn.  Coefficient  Atom+Function  
  ----- ------------  ---------------      ----- ------------  ---------------
    12      0.706188   3 C  s                17      0.706188   4 C  s         
    22     -0.619420   5 C  s                27     -0.619420   6 C  s         
    60     -0.475203  20 H  s                59     -0.475203  19 H  s         
    53      0.415062  16 C  s                48      0.415062  15 C  s         
    50     -0.382627  15 C  py               55      0.382627  16 C  py        

 Vector   51  Occ=0.000000D+00  E= 5.255611D-01  Symmetry=ag
              MO Center= -3.3D-16, -1.2D-14, -5.0D-17, r^2= 6.5D+00
   Bfn.  Coefficient  Atom+Function         Bfn.  Coefficient  Atom+Function  
  ----- ------------  ---------------      ----- ------------  ---------------
     9      0.601872   2 C  py                4     -0.601872   1 C  py        
    41      0.491644  12 C  s                36      0.491644  11 C  s         
    18     -0.452520   4 C  px               13      0.452520   3 C  px        
     7      0.448717   2 C  s                 2      0.448717   1 C  s         
    54     -0.342027  16 C  px               49      0.342027  15 C  px        


 center of mass
 --------------
 x =   0.00000000 y =   0.00000000 z =   0.00000000

 moments of inertia (a.u.)
 ------------------
        2631.731379210404           0.000000000000           0.000000000000
           0.000000000000         390.819001468288           0.000000000000
           0.000000000000           0.000000000000        3022.550380678692

     Multipole analysis of the density
     ---------------------------------

     L   x y z        total         alpha         beta         nuclear
     -   - - -        -----         -----         ----         -------
     0   0 0 0     -0.000000    -35.000000    -35.000000     70.000000

     1   1 0 0     -0.000000     -0.000000     -0.000000      0.000000
     1   0 1 0     -0.000000     -0.000000     -0.000000      0.000000
     1   0 0 1     -0.000000     -0.000000     -0.000000      0.000000

     2   2 0 0    -37.347206   -141.071539   -141.071539    244.795872
     2   1 1 0      0.065962      2.848495      2.848495     -5.631027
     2   1 0 1      0.000000      0.000000      0.000000      0.000000
     2   0 2 0    -37.713762   -767.338531   -767.338531   1496.963300
     2   0 1 1     -0.000000     -0.000000     -0.000000      0.000000
     2   0 0 2    -43.587344    -21.793672    -21.793672      0.000000


 Parallel integral file used       8 records with       0 large values



                            NWChem DFT Gradient Module
                            --------------------------


                        Divinylbenzene in STO-3G basis set



  charge          =   0.00
  wavefunction    = closed shell

  Using symmetry


                         DFT ENERGY GRADIENTS

    atom               coordinates                        gradient
                 x          y          z           x          y          z
   1 C       0.447498   2.672387   0.000000    0.000239  -0.000679   0.000000
   2 C      -0.447498  -2.672387   0.000000   -0.000239   0.000679   0.000000
   3 C       2.488298   0.924096   0.000000    0.000304   0.001223   0.000000
   4 C      -2.488298  -0.924096   0.000000   -0.000304  -0.001223   0.000000
   5 C       2.053751  -1.690315   0.000000    0.001346   0.000153   0.000000
   6 C      -2.053751   1.690315   0.000000   -0.001346  -0.000153   0.000000
   7 H       4.436703   1.641481   0.000000    0.000156  -0.000141   0.000000
   8 H      -4.436703  -1.641481   0.000000   -0.000156   0.000141   0.000000
   9 H       3.661612  -2.998879   0.000000   -0.000770  -0.000274   0.000000
  10 H      -3.661612   2.998879   0.000000    0.000770   0.000274   0.000000
  11 C      -1.010073  -5.446433   0.000000    0.000511   0.000583   0.000000
  12 C       1.010073   5.446433   0.000000   -0.000511  -0.000583   0.000000
  13 H      -3.035954  -5.920309   0.000000   -0.000313  -0.000571   0.000000
  14 H       3.035954   5.920309   0.000000    0.000313   0.000571   0.000000
  15 C       0.688224  -7.335500   0.000000   -0.000198  -0.000020   0.000000
  16 C      -0.688224   7.335500   0.000000    0.000198   0.000020   0.000000
  17 H       2.731087  -6.994712   0.000000   -0.000069   0.000373   0.000000
  18 H      -2.731087   6.994712   0.000000    0.000069  -0.000373   0.000000
  19 H       0.090997  -9.319983   0.000000   -0.000133  -0.000398   0.000000
  20 H      -0.090997   9.319983   0.000000    0.000133   0.000398   0.000000

                 ----------------------------------------
                 |  Time  |  1-e(secs)   |  2-e(secs)   |
                 ----------------------------------------
                 |  CPU   |       0.02   |       2.81   |
                 ----------------------------------------
                 |  WALL  |       0.02   |       2.81   |
                 ----------------------------------------

@ Step       Energy      Delta E   Gmax     Grms     Xrms     Xmax   Walltime
@ ---- ---------------- -------- -------- -------- -------- -------- --------
@    0    -382.30823638  0.0D+00  0.00075  0.00023  0.00000  0.00000     13.8
                                              ok       ok       ok  



                                Z-matrix (autoz)
                                -------- 

 Units are Angstrom for bonds and degrees for angles

      Type          Name      I     J     K     L     M      Value     Gradient
      ----------- --------  ----- ----- ----- ----- ----- ---------- ----------
    1 Stretch                  1     3                       1.42204   -0.00030
    2 Stretch                  1     6                       1.42197    0.00075
    3 Stretch                  1    12                       1.49784    0.00007
    4 Stretch                  2     4                       1.42204   -0.00030
    5 Stretch                  2     5                       1.42197    0.00075
    6 Stretch                  2    11                       1.49784    0.00007
    7 Stretch                  3     5                       1.40247    0.00030
    8 Stretch                  3     7                       1.09872    0.00010
    9 Stretch                  4     6                       1.40247    0.00030
   10 Stretch                  4     8                       1.09872    0.00010
   11 Stretch                  5     9                       1.09701   -0.00042
   12 Stretch                  6    10                       1.09701   -0.00042
   13 Stretch                 11    13                       1.10099    0.00044
   14 Stretch                 11    15                       1.34423   -0.00024
   15 Stretch                 12    14                       1.10099    0.00044
   16 Stretch                 12    16                       1.34423   -0.00024
   17 Stretch                 15    17                       1.09597   -0.00001
   18 Stretch                 15    19                       1.09667    0.00042
   19 Stretch                 16    18                       1.09597   -0.00001
   20 Stretch                 16    20                       1.09667    0.00042
   21 Bend                     1     3     5               121.14867   -0.00040
   22 Bend                     1     3     7               119.20109    0.00030
   23 Bend                     1     6     4               120.87358    0.00004
   24 Bend                     1     6    10               119.42285   -0.00040
   25 Bend                     1    12    14               114.62953    0.00034
   26 Bend                     1    12    16               126.57992   -0.00015
   27 Bend                     2     4     6               121.14867   -0.00040
   28 Bend                     2     4     8               119.20109    0.00030
   29 Bend                     2     5     3               120.87358    0.00004
   30 Bend                     2     5     9               119.42285   -0.00040
   31 Bend                     2    11    13               114.62953    0.00034
   32 Bend                     2    11    15               126.57992   -0.00015
   33 Bend                     3     1     6               117.97776    0.00035
   34 Bend                     3     1    12               119.12155   -0.00008
   35 Bend                     3     5     9               119.70357    0.00036
   36 Bend                     4     2     5               117.97776    0.00035
   37 Bend                     4     2    11               119.12155   -0.00008
   38 Bend                     4     6    10               119.70357    0.00036
   39 Bend                     5     2    11               122.90069   -0.00027
   40 Bend                     5     3     7               119.65024    0.00009
   41 Bend                     6     1    12               122.90069   -0.00027
   42 Bend                     6     4     8               119.65024    0.00009
   43 Bend                    11    15    17               122.48517   -0.00027
   44 Bend                    11    15    19               121.29492    0.00013
   45 Bend                    12    16    18               122.48517   -0.00027
   46 Bend                    12    16    20               121.29492    0.00013
   47 Bend                    13    11    15               118.79054   -0.00019
   48 Bend                    14    12    16               118.79054   -0.00019
   49 Bend                    17    15    19               116.21990    0.00014
   50 Bend                    18    16    20               116.21990    0.00014
   51 Torsion                  1     3     5     2           0.00000   -0.00000
   52 Torsion                  1     3     5     9         180.00000   -0.00000
   53 Torsion                  1     6     4     2           0.00000   -0.00000
   54 Torsion                  1     6     4     8         180.00000    0.00000
   55 Torsion                  1    12    16    18           0.00000   -0.00000
   56 Torsion                  1    12    16    20         180.00000    0.00000
   57 Torsion                  2     4     6    10         180.00000   -0.00000
   58 Torsion                  2     5     3     7         180.00000    0.00000
   59 Torsion                  2    11    15    17           0.00000    0.00000
   60 Torsion                  2    11    15    19         180.00000    0.00000
   61 Torsion                  3     1     6     4           0.00000   -0.00000
   62 Torsion                  3     1     6    10         180.00000    0.00000
   63 Torsion                  3     1    12    14           0.00000   -0.00000
   64 Torsion                  3     1    12    16         180.00000   -0.00000
   65 Torsion                  3     5     2     4           0.00000   -0.00000
   66 Torsion                  3     5     2    11         180.00000   -0.00000
   67 Torsion                  4     2     5     9         180.00000    0.00000
   68 Torsion                  4     2    11    13           0.00000   -0.00000
   69 Torsion                  4     2    11    15         180.00000   -0.00000
   70 Torsion                  4     6     1    12         180.00000   -0.00000
   71 Torsion                  5     2     4     6          -0.00000    0.00000
   72 Torsion                  5     2     4     8         180.00000   -0.00000
   73 Torsion                  5     2    11    13         180.00000    0.00000
   74 Torsion                  5     2    11    15           0.00000   -0.00000
   75 Torsion                  5     3     1     6           0.00000    0.00000
   76 Torsion                  5     3     1    12         180.00000    0.00000
   77 Torsion                  6     1     3     7         180.00000   -0.00000
   78 Torsion                  6     1    12    14         180.00000    0.00000
   79 Torsion                  6     1    12    16           0.00000   -0.00000
   80 Torsion                  6     4     2    11         180.00000    0.00000
   81 Torsion                  7     3     1    12          -0.00000    0.00000
   82 Torsion                  7     3     5     9           0.00000   -0.00000
   83 Torsion                  8     4     2    11          -0.00000    0.00000
   84 Torsion                  8     4     6    10           0.00000    0.00000
   85 Torsion                  9     5     2    11           0.00000   -0.00000
   86 Torsion                 10     6     1    12           0.00000    0.00000
   87 Torsion                 13    11    15    17         180.00000   -0.00000
   88 Torsion                 13    11    15    19          -0.00000   -0.00000
   89 Torsion                 14    12    16    18         180.00000   -0.00000
   90 Torsion                 14    12    16    20          -0.00000   -0.00000


                                 NWChem DFT Module
                                 -----------------


                        Divinylbenzene in STO-3G basis set


  Caching 1-el integrals 

            General Information
            -------------------
          SCF calculation type: DFT
          Wavefunction type:  closed shell.
          No. of atoms     :    20
          No. of electrons :    70
           Alpha electrons :    35
            Beta electrons :    35
          Charge           :     0
          Spin multiplicity:     1
          Use of symmetry is: on ; symmetry adaption is: on 
          Maximum number of iterations:  30
          AO basis - number of functions:    60
                     number of shells:    40
          Convergence on energy requested: 1.00D-06
          Convergence on density requested: 1.00D-05
          Convergence on gradient requested: 5.00D-04

              XC Information
              --------------
                         B3LYP Method XC Potential
                     Hartree-Fock (Exact) Exchange  0.200          
                        Slater Exchange Functional  0.800 local    
                    Becke 1988 Exchange Functional  0.720 non-local
              Lee-Yang-Parr Correlation Functional  0.810          
                  VWN I RPA Correlation Functional  0.190 local    

             Grid Information
             ----------------
          Grid used for XC integration:  medium    
          Radial quadrature: Mura-Knowles        
          Angular quadrature: Lebedev. 
          Tag              B.-S. Rad. Rad. Pts. Rad. Cut. Ang. Pts.
          ---              ---------- --------- --------- ---------
          C                   0.70       49          12.0       434
          H                   0.35       45          12.0       434
          Grid pruning is: on 
          Number of quadrature shells:   470
          Spatial weights used:  Erf1

          Convergence Information
          -----------------------
          Convergence aids based upon iterative change in 
          total energy or number of iterations. 
          Levelshifting, if invoked, occurs when the 
          HOMO/LUMO gap drops below (HL_TOL): 1.00D-02
          DIIS, if invoked, will attempt to extrapolate 
          using up to (NFOCK): 10 stored Fock matrices.

                    Damping( 0%)  Levelshifting(0.5)       DIIS
                  --------------- ------------------- ---------------
          dE  on:    start            ASAP                start   
          dE off:    2 iters         30 iters            30 iters 


      Screening Tolerance Information
      -------------------------------
          Density screening/tol_rho: 1.00D-10
          AO Gaussian exp screening on grid/accAOfunc:  14
          CD Gaussian exp screening on grid/accCDfunc:  20
          XC Gaussian exp screening on grid/accXCfunc:  20
          Schwarz screening/accCoul: 1.00D-08


 Loading old vectors from job with title :

Divinylbenzene in STO-3G basis set


      Symmetry analysis of molecular orbitals - initial
      -------------------------------------------------

  Numbering of irreducible representations: 

     1 ag          2 au          3 bg          4 bu      

  Orbital symmetries:

     1 bu          2 ag          3 bu          4 ag          5 ag      
     6 bu          7 bu          8 ag          9 bu         10 ag      
    11 ag         12 bu         13 ag         14 bu         15 bu      
    16 ag         17 ag         18 bu         19 ag         20 ag      
    21 bu         22 bu         23 bu         24 ag         25 bu      
    26 bu         27 ag         28 au         29 bu         30 ag      
    31 ag         32 bg         33 au         34 bg         35 bg      
    36 au         37 au         38 bg         39 au         40 bg      
    41 ag         42 bu         43 bu         44 ag         45 ag      

   Time after variat. SCF:     13.7
   Time prior to 1st pass:     13.7

 Integral file          = ./dvb.aoints.0
 Record size in doubles =  65536        No. of integs per rec  =  43688
 Max. records in memory =     19        Max. records in file   = ******
 No. of bits per label  =      8        No. of bits per value  =     64


 #quartets = 1.167D+05 #integrals = 3.470D+05 #direct =  0.0% #cached =100.0%


 Grid_pts file          = ./dvb.gridpts.0
 Record size in doubles =  12289        No. of grid_pts per rec  =   3070
 Max. records in memory =     75        Max. recs in file   =  11658495


           Memory utilization after 1st SCF pass: 
           Heap Space remaining (MW):       10.94            10936781
          Stack Space remaining (MW):       13.11            13106305

   convergence    iter        energy       DeltaE   RMS-Dens  Diis-err    time
 ---------------- ----- ----------------- --------- --------- ---------  ------
 d= 0,ls=0.0,diis     1   -382.3082485902 -8.28D+02  1.66D-04  4.16D-05    16.6
 d= 0,ls=0.0,diis     2   -382.3082594602 -1.09D-05  2.07D-05  4.04D-07    17.5
 d= 0,ls=0.0,diis     3   -382.3082594932 -3.30D-08  1.01D-05  3.94D-07    18.4
 d= 0,ls=0.0,diis     4   -382.3082595530 -5.98D-08  2.30D-06  1.28D-08    19.2


         Total DFT energy =     -382.308259552979
      One electron energy =    -1400.534542941399
           Coulomb energy =      630.186487335777
    Exchange-Corr. energy =      -57.843632168966
 Nuclear repulsion energy =      445.883428221608

 Numeric. integr. density =       69.999955546588

     Total iterative time =      5.6s



                       DFT Final Molecular Orbital Analysis
                       ------------------------------------

 Vector   10  Occ=2.000000D+00  E=-9.992319D+00  Symmetry=ag
              MO Center=  0.0D+00,  0.0D+00,  3.8D-35, r^2= 1.5D+01
   Bfn.  Coefficient  Atom+Function         Bfn.  Coefficient  Atom+Function  
  ----- ------------  ---------------      ----- ------------  ---------------
    47     -0.700478  15 C  s                52     -0.700478  16 C  s         

 Vector   11  Occ=2.000000D+00  E=-8.095489D-01  Symmetry=ag
              MO Center=  1.1D-16, -7.6D-17,  3.2D-33, r^2= 3.0D+00
   Bfn.  Coefficient  Atom+Function         Bfn.  Coefficient  Atom+Function  
  ----- ------------  ---------------      ----- ------------  ---------------
     2     -0.274630   1 C  s                 7     -0.274630   2 C  s         
    12     -0.247043   3 C  s                17     -0.247043   4 C  s         
    22     -0.246799   5 C  s                27     -0.246799   6 C  s         

 Vector   12  Occ=2.000000D+00  E=-7.539498D-01  Symmetry=bu
              MO Center=  4.2D-17,  1.1D-16, -9.1D-35, r^2= 7.8D+00
   Bfn.  Coefficient  Atom+Function         Bfn.  Coefficient  Atom+Function  
  ----- ------------  ---------------      ----- ------------  ---------------
    36      0.297189  11 C  s                41     -0.297189  12 C  s         
     2     -0.273988   1 C  s                 7      0.273988   2 C  s         
    48      0.209131  15 C  s                53     -0.209131  16 C  s         

 Vector   13  Occ=2.000000D+00  E=-7.179319D-01  Symmetry=ag
              MO Center=  6.5D-16,  7.9D-15,  3.7D-16, r^2= 1.1D+01
   Bfn.  Coefficient  Atom+Function         Bfn.  Coefficient  Atom+Function  
  ----- ------------  ---------------      ----- ------------  ---------------
    41      0.315010  12 C  s                36      0.315010  11 C  s         
    53      0.309759  16 C  s                48      0.309759  15 C  s         

 Vector   14  Occ=2.000000D+00  E=-6.998147D-01  Symmetry=bu
              MO Center= -1.1D-15, -1.3D-15,  6.6D-20, r^2= 3.2D+00
   Bfn.  Coefficient  Atom+Function         Bfn.  Coefficient  Atom+Function  
  ----- ------------  ---------------      ----- ------------  ---------------
    17     -0.356677   4 C  s                12      0.356677   3 C  s         
    27     -0.324757   6 C  s                22      0.324757   5 C  s         

 Vector   15  Occ=2.000000D+00  E=-6.675482D-01  Symmetry=bu
              MO Center= -5.6D-17, -3.9D-15,  2.0D-19, r^2= 9.1D+00
   Bfn.  Coefficient  Atom+Function         Bfn.  Coefficient  Atom+Function  
  ----- ------------  ---------------      ----- ------------  ---------------
    48     -0.299803  15 C  s                53      0.299803  16 C  s         
     2     -0.273934   1 C  s                 7      0.273934   2 C  s         
    22      0.200559   5 C  s                27     -0.200559   6 C  s         

 Vector   16  Occ=2.000000D+00  E=-5.886669D-01  Symmetry=ag
              MO Center= -3.9D-16,  4.3D-16, -1.3D-16, r^2= 8.5D+00
   Bfn.  Coefficient  Atom+Function         Bfn.  Coefficient  Atom+Function  
  ----- ------------  ---------------      ----- ------------  ---------------
    53     -0.242667  16 C  s                48     -0.242667  15 C  s         
    27     -0.232286   6 C  s                22     -0.232286   5 C  s         
     7      0.206858   2 C  s                 2      0.206858   1 C  s         
    41      0.159673  12 C  s                36      0.159673  11 C  s         
    19     -0.159663   4 C  py               14      0.159663   3 C  py        

 Vector   17  Occ=2.000000D+00  E=-5.590454D-01  Symmetry=ag
              MO Center= -4.0D-16, -6.4D-16, -1.4D-16, r^2= 5.1D+00
   Bfn.  Coefficient  Atom+Function         Bfn.  Coefficient  Atom+Function  
  ----- ------------  ---------------      ----- ------------  ---------------
    12     -0.326132   3 C  s                17     -0.326132   4 C  s         
     3     -0.185812   1 C  px                8      0.185812   2 C  px        
    22      0.172014   5 C  s                27      0.172014   6 C  s         
    29      0.170302   6 C  py               24     -0.170302   5 C  py        
    32     -0.169564   8 H  s                31     -0.169564   7 H  s         

 Vector   18  Occ=2.000000D+00  E=-5.316724D-01  Symmetry=bu
              MO Center=  2.6D-16, -8.8D-15, -1.3D-17, r^2= 1.2D+01
   Bfn.  Coefficient  Atom+Function         Bfn.  Coefficient  Atom+Function  
  ----- ------------  ---------------      ----- ------------  ---------------
    36      0.302637  11 C  s                41     -0.302637  12 C  s         
    48     -0.249279  15 C  s                53      0.249279  16 C  s         
[...]
   73 Torsion                  5     2    11    13         180.00000   -0.00000
   74 Torsion                  5     2    11    15           0.00000    0.00000
   75 Torsion                  5     3     1     6           0.00000   -0.00000
   76 Torsion                  5     3     1    12         180.00000   -0.00000
   77 Torsion                  6     1     3     7         180.00000    0.00000
   78 Torsion                  6     1    12    14         180.00000   -0.00000
   79 Torsion                  6     1    12    16           0.00000    0.00000
   80 Torsion                  6     4     2    11         180.00000   -0.00000
   81 Torsion                  7     3     1    12          -0.00000   -0.00000
   82 Torsion                  7     3     5     9           0.00000    0.00000
   83 Torsion                  8     4     2    11          -0.00000   -0.00000
   84 Torsion                  8     4     6    10           0.00000   -0.00000
   85 Torsion                  9     5     2    11           0.00000    0.00000
   86 Torsion                 10     6     1    12           0.00000   -0.00000
   87 Torsion                 13    11    15    17         180.00000    0.00000
   88 Torsion                 13    11    15    19          -0.00000    0.00000
   89 Torsion                 14    12    16    18         180.00000    0.00000
   90 Torsion                 14    12    16    20          -0.00000    0.00000



                         Geometry "geometry" -> "geometry"
                         ---------------------------------

 Output coordinates in angstroms (scale by  1.889725989 to convert to a.u.)

  No.       Tag          Charge          X              Y              Z
 ---- ---------------- ---------- -------------- -------------- --------------
    1 C                    6.0000     0.23508256     1.41623076     0.00000000
    2 C                    6.0000    -0.23508256    -1.41623076     0.00000000
    3 C                    6.0000     1.31391859     0.48912607     0.00000000
    4 C                    6.0000    -1.31391859    -0.48912607     0.00000000
    5 C                    6.0000     1.08691202    -0.89453863     0.00000000
    6 C                    6.0000    -1.08691202     0.89453863     0.00000000
    7 H                    1.0000     2.34428991     0.87038541     0.00000000
    8 H                    1.0000    -2.34428991    -0.87038541     0.00000000
    9 H                    1.0000     1.94344840    -1.58087599     0.00000000
   10 H                    1.0000    -1.94344840     1.58087599     0.00000000
   11 C                    6.0000    -0.53389084    -2.88364220     0.00000000
   12 C                    6.0000     0.53389084     2.88364220     0.00000000
   13 H                    1.0000    -1.60646161    -3.12967284     0.00000000
   14 H                    1.0000     1.60646161     3.12967284     0.00000000
   15 C                    6.0000     0.36353624    -3.88450834     0.00000000
   16 C                    6.0000    -0.36353624     3.88450834     0.00000000
   17 H                    1.0000     1.44535551    -3.70889986     0.00000000
   18 H                    1.0000    -1.44535551     3.70889986     0.00000000
   19 H                    1.0000     0.04482546    -4.93338203     0.00000000
   20 H                    1.0000    -0.04482546     4.93338203     0.00000000

      Atomic Mass 
      ----------- 

      C                 12.000000
      H                  1.007825


 Effective nuclear repulsion energy (a.u.)     445.8936489941

            Nuclear Dipole moment (a.u.) 
            ----------------------------
        X                 Y               Z
 ---------------- ---------------- ----------------
     0.0000000000     0.0000000000     0.0000000000

      Symmetry information
      --------------------

 Group name             C2h       
 Group number             21
 Group order               4
 No. of unique centers    10

      Symmetry unique atoms

     1    3    5    7    9   11   13   15   17   19


                Final and change from initial internal coordinates
                --------------------------------------------------



                                Z-matrix (autoz)
                                -------- 

 Units are Angstrom for bonds and degrees for angles

      Type          Name      I     J     K     L     M      Value       Change
      ----------- --------  ----- ----- ----- ----- ----- ---------- ----------
    1 Stretch                  1     3                       1.42247    0.00043
    2 Stretch                  1     6                       1.42121   -0.00076
    3 Stretch                  1    12                       1.49753   -0.00032
    4 Stretch                  2     4                       1.42247    0.00043
    5 Stretch                  2     5                       1.42121   -0.00076
    6 Stretch                  2    11                       1.49753   -0.00032
    7 Stretch                  3     5                       1.40216   -0.00030
    8 Stretch                  3     7                       1.09865   -0.00007
    9 Stretch                  4     6                       1.40216   -0.00030
   10 Stretch                  4     8                       1.09865   -0.00007
   11 Stretch                  5     9                       1.09759    0.00058
   12 Stretch                  6    10                       1.09759    0.00058
   13 Stretch                 11    13                       1.10043   -0.00056
   14 Stretch                 11    15                       1.34429    0.00005
   15 Stretch                 12    14                       1.10043   -0.00056
   16 Stretch                 12    16                       1.34429    0.00005
   17 Stretch                 15    17                       1.09598    0.00000
   18 Stretch                 15    19                       1.09623   -0.00044
   19 Stretch                 16    18                       1.09598    0.00000
   20 Stretch                 16    20                       1.09623   -0.00044
   21 Bend                     1     3     5               121.35728    0.20861
   22 Bend                     1     3     7               119.02012   -0.18097
   23 Bend                     1     6     4               120.85248   -0.02110
   24 Bend                     1     6    10               119.75958    0.33673
   25 Bend                     1    12    14               114.42899   -0.20054
   26 Bend                     1    12    16               126.60925    0.02932
   27 Bend                     2     4     6               121.35728    0.20861
   28 Bend                     2     4     8               119.02012   -0.18097
   29 Bend                     2     5     3               120.85248   -0.02110
   30 Bend                     2     5     9               119.75958    0.33673
   31 Bend                     2    11    13               114.42899   -0.20054
   32 Bend                     2    11    15               126.60925    0.02932
   33 Bend                     3     1     6               117.79024   -0.18752
   34 Bend                     3     1    12               119.16458    0.04303
   35 Bend                     3     5     9               119.38793   -0.31564
   36 Bend                     4     2     5               117.79024   -0.18752
   37 Bend                     4     2    11               119.16458    0.04303
   38 Bend                     4     6    10               119.38793   -0.31564
   39 Bend                     5     2    11               123.04518    0.14449
   40 Bend                     5     3     7               119.62260   -0.02764
   41 Bend                     6     1    12               123.04518    0.14449
   42 Bend                     6     4     8               119.62260   -0.02764
   43 Bend                    11    15    17               122.66078    0.17560
   44 Bend                    11    15    19               121.21706   -0.07786
   45 Bend                    12    16    18               122.66078    0.17560
   46 Bend                    12    16    20               121.21706   -0.07786
   47 Bend                    13    11    15               118.96176    0.17122
   48 Bend                    14    12    16               118.96176    0.17122
   49 Bend                    17    15    19               116.12216   -0.09774
   50 Bend                    18    16    20               116.12216   -0.09774
   51 Torsion                  1     3     5     2           0.00000    0.00000
   52 Torsion                  1     3     5     9         180.00000    0.00000
   53 Torsion                  1     6     4     2           0.00000    0.00000
   54 Torsion                  1     6     4     8         180.00000    0.00000
   55 Torsion                  1    12    16    18           0.00000    0.00000
   56 Torsion                  1    12    16    20         180.00000    0.00000
   57 Torsion                  2     4     6    10         180.00000    0.00000
   58 Torsion                  2     5     3     7         180.00000    0.00000
   59 Torsion                  2    11    15    17           0.00000    0.00000
   60 Torsion                  2    11    15    19         180.00000    0.00000
   61 Torsion                  3     1     6     4           0.00000    0.00000
   62 Torsion                  3     1     6    10         180.00000    0.00000
   63 Torsion                  3     1    12    14           0.00000    0.00000
   64 Torsion                  3     1    12    16         180.00000    0.00000
   65 Torsion                  3     5     2     4           0.00000    0.00000
   66 Torsion                  3     5     2    11         180.00000    0.00000
   67 Torsion                  4     2     5     9         180.00000    0.00000
   68 Torsion                  4     2    11    13           0.00000    0.00000
   69 Torsion                  4     2    11    15         180.00000    0.00000
   70 Torsion                  4     6     1    12         180.00000    0.00000
   71 Torsion                  5     2     4     6          -0.00000    0.00000
   72 Torsion                  5     2     4     8         180.00000    0.00000
   73 Torsion                  5     2    11    13         180.00000    0.00000
   74 Torsion                  5     2    11    15           0.00000    0.00000
   75 Torsion                  5     3     1     6           0.00000    0.00000
   76 Torsion                  5     3     1    12         180.00000    0.00000
   77 Torsion                  6     1     3     7         180.00000    0.00000
   78 Torsion                  6     1    12    14         180.00000    0.00000
   79 Torsion                  6     1    12    16           0.00000    0.00000
   80 Torsion                  6     4     2    11         180.00000    0.00000
   81 Torsion                  7     3     1    12          -0.00000    0.00000
   82 Torsion                  7     3     5     9           0.00000    0.00000
   83 Torsion                  8     4     2    11          -0.00000    0.00000
   84 Torsion                  8     4     6    10           0.00000    0.00000
   85 Torsion                  9     5     2    11           0.00000    0.00000
   86 Torsion                 10     6     1    12           0.00000    0.00000
   87 Torsion                 13    11    15    17         180.00000    0.00000
   88 Torsion                 13    11    15    19          -0.00000    0.00000
   89 Torsion                 14    12    16    18         180.00000    0.00000
   90 Torsion                 14    12    16    20          -0.00000    0.00000

 ==============================================================================
                                internuclear distances
 ------------------------------------------------------------------------------
       center one      |      center two      | atomic units |  angstroms
 ------------------------------------------------------------------------------
    3 C                |   1 C                |     2.68807  |     1.42247
    4 C                |   2 C                |     2.68807  |     1.42247
    5 C                |   2 C                |     2.68569  |     1.42121
    5 C                |   3 C                |     2.64970  |     1.40216
    6 C                |   1 C                |     2.68569  |     1.42121
    6 C                |   4 C                |     2.64970  |     1.40216
    7 H                |   3 C                |     2.07614  |     1.09865
    8 H                |   4 C                |     2.07614  |     1.09865
    9 H                |   5 C                |     2.07415  |     1.09759
   10 H                |   6 C                |     2.07415  |     1.09759
   11 C                |   2 C                |     2.82991  |     1.49753
   12 C                |   1 C                |     2.82991  |     1.49753
   13 H                |  11 C                |     2.07951  |     1.10043
   14 H                |  12 C                |     2.07951  |     1.10043
   15 C                |  11 C                |     2.54033  |     1.34429
   16 C                |  12 C                |     2.54033  |     1.34429
   17 H                |  15 C                |     2.07110  |     1.09598
   18 H                |  16 C                |     2.07110  |     1.09598
   19 H                |  15 C                |     2.07157  |     1.09623
   20 H                |  16 C                |     2.07157  |     1.09623
 ------------------------------------------------------------------------------
                         number of included internuclear distances:         20
 ==============================================================================



 ==============================================================================
                                 internuclear angles
 ------------------------------------------------------------------------------
        center 1       |       center 2       |       center 3       |  degrees
 ------------------------------------------------------------------------------
    3 C                |   1 C                |   6 C                |   117.79
    3 C                |   1 C                |  12 C                |   119.16
    6 C                |   1 C                |  12 C                |   123.05
    4 C                |   2 C                |   5 C                |   117.79
    4 C                |   2 C                |  11 C                |   119.16
    5 C                |   2 C                |  11 C                |   123.05
    1 C                |   3 C                |   5 C                |   121.36
    1 C                |   3 C                |   7 H                |   119.02
    5 C                |   3 C                |   7 H                |   119.62
    2 C                |   4 C                |   6 C                |   121.36
    2 C                |   4 C                |   8 H                |   119.02
    6 C                |   4 C                |   8 H                |   119.62
    2 C                |   5 C                |   3 C                |   120.85
    2 C                |   5 C                |   9 H                |   119.76
    3 C                |   5 C                |   9 H                |   119.39
    1 C                |   6 C                |   4 C                |   120.85
    1 C                |   6 C                |  10 H                |   119.76
    4 C                |   6 C                |  10 H                |   119.39
    2 C                |  11 C                |  13 H                |   114.43
    2 C                |  11 C                |  15 C                |   126.61
   13 H                |  11 C                |  15 C                |   118.96
    1 C                |  12 C                |  14 H                |   114.43
    1 C                |  12 C                |  16 C                |   126.61
   14 H                |  12 C                |  16 C                |   118.96
   11 C                |  15 C                |  17 H                |   122.66
   11 C                |  15 C                |  19 H                |   121.22
   17 H                |  15 C                |  19 H                |   116.12
   12 C                |  16 C                |  18 H                |   122.66
   12 C                |  16 C                |  20 H                |   121.22
   18 H                |  16 C                |  20 H                |   116.12
 ------------------------------------------------------------------------------
                            number of included internuclear angles:         30
 ==============================================================================




 Task  times  cpu:       44.6s     wall:       45.6s
 Summary of allocated global arrays
-----------------------------------
  No active global arrays



                         GA Statistics for process    0
                         ------------------------------

       create   destroy   get      put      acc     scatter   gather  read&inc
calls:  622      622     4.26e+05 1.81e+04 2.62e+05    0        0        0     
number of processes/call 1.00e+00 1.00e+00 1.00e+00 0.00e+00 0.00e+00
bytes total:             8.45e+07 1.80e+07 2.11e+07 0.00e+00 0.00e+00 0.00e+00
bytes remote:            0.00e+00 0.00e+00 0.00e+00 0.00e+00 0.00e+00 0.00e+00
Max memory consumed for GA by this process: 1123200 bytes
MA_summarize_allocated_blocks: starting scan ...
MA_summarize_allocated_blocks: scan completed: 0 heap blocks, 0 stack blocks
MA usage statistics:

	allocation statistics:
					      heap	     stack
					      ----	     -----
	current number of blocks	         0	         0
	maximum number of blocks	        25	        52
	current total bytes		         0	         0
	maximum total bytes		  17363360	  22516152
	maximum total K-bytes		     17364	     22517
	maximum total M-bytes		        18	        23


                                NWChem Input Module
                                -------------------





                                     CITATION
                                     --------
                Please cite the following reference when publishing
                           results obtained with NWChem:

                 M. Valiev, E.J. Bylaska, N. Govind, K. Kowalski,
              T.P. Straatsma, H.J.J. van Dam, D. Wang, J. Nieplocha,
                        E. Apra, T.L. Windus, W.A. de Jong
                 "NWChem: a comprehensive and scalable open-source
                  solution for large scale molecular simulations"
                      Comput. Phys. Commun. 181, 1477 (2010)
                           doi:10.1016/j.cpc.2010.04.018

                              AUTHORS & CONTRIBUTORS
                              ----------------------
      E. J. Bylaska, W. A. de Jong, N. Govind, K. Kowalski, T. P. Straatsma,
     M. Valiev, H. J. J. van Dam, D. Wang, E. Apra, T. L. Windus, J. Hammond,
     J. Autschbach, P. Nichols, S. Hirata, M. T. Hackler, Y. Zhao, P.-D. Fan,
      R. J. Harrison, M. Dupuis, D. M. A. Smith, K. Glaesemann, J. Nieplocha,
      V. Tipparaju, M. Krishnan, A. Vazquez-Mayagoitia, L. Jensen, M. Swart,
      Q. Wu, T. Van Voorhis, A. A. Auer, M. Nooijen, L. D. Crosby, E. Brown,
             G. Cisneros, G. I. Fann, H. Fruchtl, J. Garza, K. Hirao,
        R. Kendall, J. A. Nichols, K. Tsemekhman, K. Wolinski, J. Anchell,
       D. Bernholdt, P. Borowski, T. Clark, D. Clerc, H. Dachsel, M. Deegan,
        K. Dyall, D. Elwood, E. Glendening, M. Gutowski, A. Hess, J. Jaffe,
        B. Johnson, J. Ju, R. Kobayashi, R. Kutteh, Z. Lin, R. Littlefield,
    X. Long, B. Meng, T. Nakajima, S. Niu, L. Pollack, M. Rosing, G. Sandrone,
       M. Stave, H. Taylor, G. Thomas, J. H. van Lenthe, A. Wong, Z. Zhang.

 Total times  cpu:       44.6s     wall:       45.7s
