    nwchem, len=6
dvb_sp_hf.nw, len=12
 argument  1 = dvb_sp_hf.nw
                                         
                                         


              Northwest Computational Chemistry Package (NWChem) 6.0
              ------------------------------------------------------


                    Environmental Molecular Sciences Laboratory
                       Pacific Northwest National Laboratory
                                Richland, WA 99352

                              Copyright (c) 1994-2010
                       Pacific Northwest National Laboratory
                            Battelle Memorial Institute

             NWChem is an open-source computational chemistry package
                        distributed under the terms of the
                      Educational Community License (ECL) 2.0
             A copy of the license is included with this distribution
                              in the LICENSE.TXT file

                                  ACKNOWLEDGMENT
                                  --------------

            This software and its documentation were developed at the
            EMSL at Pacific Northwest National Laboratory, a multiprogram
            national laboratory, operated for the U.S. Department of Energy
            by Battelle under Contract Number DE-AC05-76RL01830. Support
            for this work was provided by the Department of Energy Office
            of Biological and Environmental Research, Office of Basic
            Energy Sciences, and the Office of Advanced Scientific Computing.


           Job information
           ---------------

    hostname      = silenziosa
    program       = nwchem
    date          = Tue Feb 18 01:23:53 2014

    compiled      = Thu_May_05_12:06:54_2011
    source        = /build/buildd/nwchem-6.0
    nwchem branch = 6.0
    input         = dvb_sp_hf.nw
    prefix        = dvb.
    data base     = ./dvb.db
    status        = startup
    nproc         =        1
    time left     =     -1s



           Memory information
           ------------------

    heap     =   13107201 doubles =    100.0 Mbytes
    stack    =   13107201 doubles =    100.0 Mbytes
    global   =   26214400 doubles =    200.0 Mbytes (distinct from heap & stack)
    total    =   52428802 doubles =    400.0 Mbytes
    verify   = yes
    hardfail = no 


           Directory information
           ---------------------

  0 permanent = .
  0 scratch   = .




                                NWChem Input Module
                                -------------------


                        Divinylbenzene in STO-3G basis set
                        ----------------------------------

 Scaling coordinates for geometry "geometry" by  1.889725989
 (inverse scale =  0.529177249)

 Turning off AUTOSYM since
 SYMMETRY directive was detected!


          ------
          auto-z
          ------


                             Geometry "geometry" -> ""
                             -------------------------

 Output coordinates in angstroms (scale by  1.889725989 to convert to a.u.)

  No.       Tag          Charge          X              Y              Z
 ---- ---------------- ---------- -------------- -------------- --------------
    1 C                    6.0000    -1.41525332     0.23022179     0.00000000
    2 C                    6.0000     1.41525332    -0.23022179     0.00000000
    3 C                    6.0000    -0.49513316     1.31446087     0.00000000
    4 C                    6.0000     0.49513316    -1.31446087     0.00000000
    5 C                    6.0000     0.88940904     1.09094937     0.00000000
    6 C                    6.0000    -0.88940904    -1.09094937     0.00000000
    7 H                    1.0000    -0.87955120     2.34373437     0.00000000
    8 H                    1.0000     0.87955120    -2.34373437     0.00000000
    9 H                    1.0000     1.57790416     1.94500613     0.00000000
   10 H                    1.0000    -1.57790416    -1.94500613     0.00000000
   11 C                    6.0000     2.88458450    -0.52108938     0.00000000
   12 C                    6.0000    -2.88458450     0.52108938     0.00000000
   13 H                    1.0000     3.14033568    -1.59196057     0.00000000
   14 H                    1.0000    -3.14033568     1.59196057     0.00000000
   15 C                    6.0000     3.88004281     0.38225354     0.00000000
   16 C                    6.0000    -3.88004281    -0.38225354     0.00000000
   17 H                    1.0000     3.69467659     1.46243896     0.00000000
   18 H                    1.0000    -3.69467659    -1.46243896     0.00000000
   19 H                    1.0000     4.93164535     0.07110495     0.00000000
   20 H                    1.0000    -4.93164535    -0.07110495     0.00000000

      Atomic Mass 
      ----------- 

      C                 12.000000
      H                  1.007825


 Effective nuclear repulsion energy (a.u.)     445.9370121674

            Nuclear Dipole moment (a.u.) 
            ----------------------------
        X                 Y               Z
 ---------------- ---------------- ----------------
     0.0000000000     0.0000000000     0.0000000000



                                Z-matrix (autoz)
                                -------- 

 Units are Angstrom for bonds and degrees for angles

      Type          Name      I     J     K     L     M      Value
      ----------- --------  ----- ----- ----- ----- ----- ----------
    1 Stretch                  1     3                       1.42204
    2 Stretch                  1     6                       1.42197
    3 Stretch                  1    12                       1.49784
    4 Stretch                  2     4                       1.42204
    5 Stretch                  2     5                       1.42197
    6 Stretch                  2    11                       1.49784
    7 Stretch                  3     5                       1.40247
    8 Stretch                  3     7                       1.09872
    9 Stretch                  4     6                       1.40247
   10 Stretch                  4     8                       1.09872
   11 Stretch                  5     9                       1.09701
   12 Stretch                  6    10                       1.09701
   13 Stretch                 11    13                       1.10099
   14 Stretch                 11    15                       1.34423
   15 Stretch                 12    14                       1.10099
   16 Stretch                 12    16                       1.34423
   17 Stretch                 15    17                       1.09597
   18 Stretch                 15    19                       1.09667
   19 Stretch                 16    18                       1.09597
   20 Stretch                 16    20                       1.09667
   21 Bend                     1     3     5               121.14867
   22 Bend                     1     3     7               119.20109
   23 Bend                     1     6     4               120.87358
   24 Bend                     1     6    10               119.42285
   25 Bend                     1    12    14               114.62953
   26 Bend                     1    12    16               126.57992
   27 Bend                     2     4     6               121.14867
   28 Bend                     2     4     8               119.20109
   29 Bend                     2     5     3               120.87358
   30 Bend                     2     5     9               119.42285
   31 Bend                     2    11    13               114.62953
   32 Bend                     2    11    15               126.57992
   33 Bend                     3     1     6               117.97776
   34 Bend                     3     1    12               119.12155
   35 Bend                     3     5     9               119.70357
   36 Bend                     4     2     5               117.97776
   37 Bend                     4     2    11               119.12155
   38 Bend                     4     6    10               119.70357
   39 Bend                     5     2    11               122.90069
   40 Bend                     5     3     7               119.65024
   41 Bend                     6     1    12               122.90069
   42 Bend                     6     4     8               119.65024
   43 Bend                    11    15    17               122.48517
   44 Bend                    11    15    19               121.29492
   45 Bend                    12    16    18               122.48517
   46 Bend                    12    16    20               121.29492
   47 Bend                    13    11    15               118.79054
   48 Bend                    14    12    16               118.79054
   49 Bend                    17    15    19               116.21990
   50 Bend                    18    16    20               116.21990
   51 Torsion                  1     3     5     2           0.00000
   52 Torsion                  1     3     5     9         180.00000
   53 Torsion                  1     6     4     2           0.00000
   54 Torsion                  1     6     4     8         180.00000
   55 Torsion                  1    12    16    18           0.00000
   56 Torsion                  1    12    16    20         180.00000
   57 Torsion                  2     4     6    10         180.00000
   58 Torsion                  2     5     3     7         180.00000
   59 Torsion                  2    11    15    17           0.00000
   60 Torsion                  2    11    15    19         180.00000
   61 Torsion                  3     1     6     4           0.00000
   62 Torsion                  3     1     6    10         180.00000
   63 Torsion                  3     1    12    14          -0.00000
   64 Torsion                  3     1    12    16         180.00000
   65 Torsion                  3     5     2     4          -0.00000
   66 Torsion                  3     5     2    11         180.00000
   67 Torsion                  4     2     5     9         180.00000
   68 Torsion                  4     2    11    13           0.00000
   69 Torsion                  4     2    11    15         180.00000
   70 Torsion                  4     6     1    12         180.00000
   71 Torsion                  5     2     4     6           0.00000
   72 Torsion                  5     2     4     8         180.00000
   73 Torsion                  5     2    11    13         180.00000
   74 Torsion                  5     2    11    15           0.00000
   75 Torsion                  5     3     1     6           0.00000
   76 Torsion                  5     3     1    12         180.00000
   77 Torsion                  6     1     3     7         180.00000
   78 Torsion                  6     1    12    14         180.00000
   79 Torsion                  6     1    12    16           0.00000
   80 Torsion                  6     4     2    11         180.00000
   81 Torsion                  7     3     1    12           0.00000
   82 Torsion                  7     3     5     9           0.00000
   83 Torsion                  8     4     2    11           0.00000
   84 Torsion                  8     4     6    10           0.00000
   85 Torsion                  9     5     2    11           0.00000
   86 Torsion                 10     6     1    12           0.00000
   87 Torsion                 13    11    15    17         180.00000
   88 Torsion                 13    11    15    19           0.00000
   89 Torsion                 14    12    16    18         180.00000
   90 Torsion                 14    12    16    20           0.00000


            XYZ format geometry
            -------------------
    20
 geometry
 C                    -1.41525332     0.23022179     0.00000000
 C                     1.41525332    -0.23022179     0.00000000
 C                    -0.49513316     1.31446087     0.00000000
 C                     0.49513316    -1.31446087     0.00000000
 C                     0.88940904     1.09094937     0.00000000
 C                    -0.88940904    -1.09094937     0.00000000
 H                    -0.87955120     2.34373437     0.00000000
 H                     0.87955120    -2.34373437     0.00000000
 H                     1.57790416     1.94500613     0.00000000
 H                    -1.57790416    -1.94500613     0.00000000
 C                     2.88458450    -0.52108938     0.00000000
 C                    -2.88458450     0.52108938     0.00000000
 H                     3.14033568    -1.59196057     0.00000000
 H                    -3.14033568     1.59196057     0.00000000
 C                     3.88004281     0.38225354     0.00000000
 C                    -3.88004281    -0.38225354     0.00000000
 H                     3.69467659     1.46243896     0.00000000
 H                    -3.69467659    -1.46243896     0.00000000
 H                     4.93164535     0.07110495     0.00000000
 H                    -4.93164535    -0.07110495     0.00000000

 ==============================================================================
                                internuclear distances
 ------------------------------------------------------------------------------
       center one      |      center two      | atomic units |  angstroms
 ------------------------------------------------------------------------------
    3 C                |   1 C                |     2.68726  |     1.42204
    4 C                |   2 C                |     2.68726  |     1.42204
    5 C                |   2 C                |     2.68714  |     1.42197
    5 C                |   3 C                |     2.65028  |     1.40247
    6 C                |   1 C                |     2.68714  |     1.42197
    6 C                |   4 C                |     2.65028  |     1.40247
    7 H                |   3 C                |     2.07628  |     1.09872
    8 H                |   4 C                |     2.07628  |     1.09872
    9 H                |   5 C                |     2.07305  |     1.09701
   10 H                |   6 C                |     2.07305  |     1.09701
   11 C                |   2 C                |     2.83052  |     1.49784
   12 C                |   1 C                |     2.83052  |     1.49784
   13 H                |  11 C                |     2.08056  |     1.10099
   14 H                |  12 C                |     2.08056  |     1.10099
   15 C                |  11 C                |     2.54023  |     1.34423
   16 C                |  12 C                |     2.54023  |     1.34423
   17 H                |  15 C                |     2.07109  |     1.09597
   18 H                |  16 C                |     2.07109  |     1.09597
   19 H                |  15 C                |     2.07240  |     1.09667
   20 H                |  16 C                |     2.07240  |     1.09667
 ------------------------------------------------------------------------------
                         number of included internuclear distances:         20
 ==============================================================================



 ==============================================================================
                                 internuclear angles
 ------------------------------------------------------------------------------
        center 1       |       center 2       |       center 3       |  degrees
 ------------------------------------------------------------------------------
    3 C                |   1 C                |   6 C                |   117.98
    3 C                |   1 C                |  12 C                |   119.12
    6 C                |   1 C                |  12 C                |   122.90
    4 C                |   2 C                |   5 C                |   117.98
    4 C                |   2 C                |  11 C                |   119.12
    5 C                |   2 C                |  11 C                |   122.90
    1 C                |   3 C                |   5 C                |   121.15
    1 C                |   3 C                |   7 H                |   119.20
    5 C                |   3 C                |   7 H                |   119.65
    2 C                |   4 C                |   6 C                |   121.15
    2 C                |   4 C                |   8 H                |   119.20
    6 C                |   4 C                |   8 H                |   119.65
    2 C                |   5 C                |   3 C                |   120.87
    2 C                |   5 C                |   9 H                |   119.42
    3 C                |   5 C                |   9 H                |   119.70
    1 C                |   6 C                |   4 C                |   120.87
    1 C                |   6 C                |  10 H                |   119.42
    4 C                |   6 C                |  10 H                |   119.70
    2 C                |  11 C                |  13 H                |   114.63
    2 C                |  11 C                |  15 C                |   126.58
   13 H                |  11 C                |  15 C                |   118.79
    1 C                |  12 C                |  14 H                |   114.63
    1 C                |  12 C                |  16 C                |   126.58
   14 H                |  12 C                |  16 C                |   118.79
   11 C                |  15 C                |  17 H                |   122.49
   11 C                |  15 C                |  19 H                |   121.29
   17 H                |  15 C                |  19 H                |   116.22
   12 C                |  16 C                |  18 H                |   122.49
   12 C                |  16 C                |  20 H                |   121.29
   18 H                |  16 C                |  20 H                |   116.22
 ------------------------------------------------------------------------------
                            number of included internuclear angles:         30
 ==============================================================================





 Summary of "ao basis" -> "" (cartesian)
 ------------------------------------------------------------------------------
       Tag                 Description            Shells   Functions and Types
 ---------------- ------------------------------  ------  ---------------------
 *                           sto-3g                   on all atoms 


                              NWChem Property Module
                              ----------------------


                        Divinylbenzene in STO-3G basis set

                      Basis "ao basis" -> "ao basis" (cartesian)
                      -----
  C (Carbon)
  ----------
            Exponent  Coefficients 
       -------------- ---------------------------------------------------------
  1 S  7.16168370E+01  0.154329
  1 S  1.30450960E+01  0.535328
  1 S  3.53051220E+00  0.444635

  2 S  2.94124940E+00 -0.099967
  2 S  6.83483100E-01  0.399513
  2 S  2.22289900E-01  0.700115

  3 P  2.94124940E+00  0.155916
  3 P  6.83483100E-01  0.607684
  3 P  2.22289900E-01  0.391957

  H (Hydrogen)
  ------------
            Exponent  Coefficients 
       -------------- ---------------------------------------------------------
  1 S  3.42525091E+00  0.154329
  1 S  6.23913730E-01  0.535328
  1 S  1.68855400E-01  0.444635



 Summary of "ao basis" -> "ao basis" (cartesian)
 ------------------------------------------------------------------------------
       Tag                 Description            Shells   Functions and Types
 ---------------- ------------------------------  ------  ---------------------
 C                           sto-3g                  3        5   2s1p
 H                           sto-3g                  1        1   1s


                                 NWChem SCF Module
                                 -----------------


                        Divinylbenzene in STO-3G basis set



  ao basis        = "ao basis"
  functions       =    60
  atoms           =    20
  closed shells   =    35
  open shells     =     0
  charge          =   0.00
  wavefunction    = RHF 
  input vectors   = atomic
  output vectors  = ./dvb.movecs
  use symmetry    = F
  symmetry adapt  = F


 Summary of "ao basis" -> "ao basis" (cartesian)
 ------------------------------------------------------------------------------
       Tag                 Description            Shells   Functions and Types
 ---------------- ------------------------------  ------  ---------------------
 C                           sto-3g                  3        5   2s1p
 H                           sto-3g                  1        1   1s



 Forming initial guess at       0.1s


      Superposition of Atomic Density Guess
      -------------------------------------

 Sum of atomic energies:        -376.44825176

      Non-variational initial energy
      ------------------------------

 Total energy =    -379.429467
 1-e energy   =   -1401.451096
 2-e energy   =     576.084617
 HOMO         =      -0.037644
 LUMO         =       0.163723


 Starting SCF solution at       0.7s



 ----------------------------------------------
         Quadratically convergent ROHF

 Convergence threshold     :          1.000E-06
 Maximum no. of iterations :           30
 Final Fock-matrix accuracy:          1.000E-08
 ----------------------------------------------


 Integral file          = ./dvb.aoints.0
 Record size in doubles =  65536        No. of integs per rec  =  43688
 Max. records in memory =     54        Max. records in file   =  56818
 No. of bits per label  =      8        No. of bits per value  =     64


 #quartets = 2.152D+05 #integrals = 6.689D+05 #direct =  0.0% #cached =100.0%


              iter       energy          gnorm     gmax       time
             ----- ------------------- --------- --------- --------
                 1     -379.7024513035  7.56D-01  1.81D-01      2.5
                 2     -379.7670223249  1.53D-01  4.40D-02      2.5
                 3     -379.7689559039  6.43D-03  2.31D-03      2.5
                 4     -379.7689629693  3.37D-05  9.23D-06      2.6
                 5     -379.7689629695  5.42D-08  1.96D-08      2.7


       Final RHF  results 
       ------------------ 

         Total SCF energy =   -379.768962969477
      One-electron energy =  -1400.222259772564
      Two-electron energy =    574.516284635641
 Nuclear repulsion energy =    445.937012167446

        Time for solution =      2.1s


             Final eigenvalues
             -----------------

              1      
    1  -11.0406
    2  -11.0405
    3  -11.0316
    4  -11.0316
    5  -11.0290
    6  -11.0288
    7  -11.0286
    8  -11.0286
    9  -11.0175
   10  -11.0175
   11   -1.0903
   12   -1.0203
   13   -0.9749
   14   -0.9503
   15   -0.9096
   16   -0.7999
   17   -0.7628
   18   -0.7276
   19   -0.6968
   20   -0.6281
   21   -0.6057
   22   -0.5729
   23   -0.5536
   24   -0.5532
   25   -0.5254
   26   -0.4967
   27   -0.4925
   28   -0.4637
   29   -0.4464
   30   -0.4217
   31   -0.4156
   32   -0.3770
   33   -0.3151
   34   -0.2784
   35   -0.2222
   36    0.1990
   37    0.2685
   38    0.3088
   39    0.3971
   40    0.5218
   41    0.5650
   42    0.5756
   43    0.6216
   44    0.6258
   45    0.6582

                       ROHF Final Molecular Orbital Analysis
                       -------------------------------------

 Vector    1  Occ=2.000000D+00  E=-1.104059D+01
              MO Center=  5.5D-09, -9.0D-10, -1.6D-17, r^2= 2.1D+00
   Bfn.  Coefficient  Atom+Function         Bfn.  Coefficient  Atom+Function  
  ----- ------------  ---------------      ----- ------------  ---------------
     6      0.701483   2 C  s                 1     -0.701483   1 C  s         

 Vector    2  Occ=2.000000D+00  E=-1.104052D+01
              MO Center= -5.5D-09,  9.0D-10, -2.5D-18, r^2= 2.1D+00
   Bfn.  Coefficient  Atom+Function         Bfn.  Coefficient  Atom+Function  
  ----- ------------  ---------------      ----- ------------  ---------------
     1      0.701541   1 C  s                 6      0.701541   2 C  s         

 Vector    3  Occ=2.000000D+00  E=-1.103159D+01
              MO Center= -6.8D-06,  1.2D-06, -9.0D-18, r^2= 8.6D+00
   Bfn.  Coefficient  Atom+Function         Bfn.  Coefficient  Atom+Function  
  ----- ------------  ---------------      ----- ------------  ---------------
    40      0.701357  12 C  s                35     -0.701356  11 C  s         

 Vector    4  Occ=2.000000D+00  E=-1.103159D+01
              MO Center=  6.8D-06, -1.2D-06,  1.0D-17, r^2= 8.6D+00
   Bfn.  Coefficient  Atom+Function         Bfn.  Coefficient  Atom+Function  
  ----- ------------  ---------------      ----- ------------  ---------------
    35      0.701320  11 C  s                40      0.701319  12 C  s         

 Vector    5  Occ=2.000000D+00  E=-1.102895D+01
              MO Center=  9.0D-10,  1.0D-09, -3.7D-18, r^2= 2.0D+00
   Bfn.  Coefficient  Atom+Function         Bfn.  Coefficient  Atom+Function  
  ----- ------------  ---------------      ----- ------------  ---------------
    21      0.594858   5 C  s                26     -0.594858   6 C  s         
    16     -0.372434   4 C  s                11      0.372434   3 C  s         

 Vector    6  Occ=2.000000D+00  E=-1.102882D+01
              MO Center=  2.9D-12, -1.1D-09,  5.3D-18, r^2= 2.0D+00
   Bfn.  Coefficient  Atom+Function         Bfn.  Coefficient  Atom+Function  
  ----- ------------  ---------------      ----- ------------  ---------------
    26      0.636234   6 C  s                21      0.636234   5 C  s         
    16      0.296240   4 C  s                11      0.296240   3 C  s         

 Vector    7  Occ=2.000000D+00  E=-1.102861D+01
              MO Center=  7.7D-10, -9.4D-09,  8.8D-18, r^2= 2.0D+00
   Bfn.  Coefficient  Atom+Function         Bfn.  Coefficient  Atom+Function  
  ----- ------------  ---------------      ----- ------------  ---------------
    16      0.594542   4 C  s                11     -0.594542   3 C  s         
    26     -0.371936   6 C  s                21      0.371936   5 C  s         

 Vector    8  Occ=2.000000D+00  E=-1.102859D+01
              MO Center= -1.7D-09,  9.5D-09,  4.0D-18, r^2= 2.0D+00
   Bfn.  Coefficient  Atom+Function         Bfn.  Coefficient  Atom+Function  
  ----- ------------  ---------------      ----- ------------  ---------------
    11      0.635996   3 C  s                16      0.635996   4 C  s         
    21     -0.295743   5 C  s                26     -0.295743   6 C  s         

 Vector    9  Occ=2.000000D+00  E=-1.101748D+01
              MO Center= -2.2D-07, -2.1D-08,  5.4D-18, r^2= 1.5D+01
   Bfn.  Coefficient  Atom+Function         Bfn.  Coefficient  Atom+Function  
  ----- ------------  ---------------      ----- ------------  ---------------
    52      0.701434  16 C  s                47     -0.701434  15 C  s         

 Vector   10  Occ=2.000000D+00  E=-1.101748D+01
              MO Center=  2.2D-07,  2.1D-08,  1.1D-17, r^2= 1.5D+01
   Bfn.  Coefficient  Atom+Function         Bfn.  Coefficient  Atom+Function  
  ----- ------------  ---------------      ----- ------------  ---------------
    47      0.701434  15 C  s                52      0.701434  16 C  s         

 Vector   11  Occ=2.000000D+00  E=-1.090298D+00
              MO Center=  7.2D-13, -2.2D-13, -8.6D-16, r^2= 3.0D+00
   Bfn.  Coefficient  Atom+Function         Bfn.  Coefficient  Atom+Function  
  ----- ------------  ---------------      ----- ------------  ---------------
     7      0.275369   2 C  s                 2      0.275369   1 C  s         
    17      0.247272   4 C  s                12      0.247272   3 C  s         
    22      0.247125   5 C  s                27      0.247125   6 C  s         

 Vector   12  Occ=2.000000D+00  E=-1.020253D+00
              MO Center= -3.1D-12,  2.2D-13, -8.3D-16, r^2= 7.9D+00
   Bfn.  Coefficient  Atom+Function         Bfn.  Coefficient  Atom+Function  
  ----- ------------  ---------------      ----- ------------  ---------------
    41      0.298699  12 C  s                36     -0.298699  11 C  s         
     7     -0.270804   2 C  s                 2      0.270804   1 C  s         
    53      0.213655  16 C  s                48     -0.213655  15 C  s         

 Vector   13  Occ=2.000000D+00  E=-9.749252D-01
              MO Center=  1.8D-12, -2.7D-13,  7.6D-16, r^2= 1.1D+01
   Bfn.  Coefficient  Atom+Function         Bfn.  Coefficient  Atom+Function  
  ----- ------------  ---------------      ----- ------------  ---------------
    36      0.314471  11 C  s                41      0.314471  12 C  s         
    48      0.310079  15 C  s                53      0.310079  16 C  s         

 Vector   14  Occ=2.000000D+00  E=-9.503010D-01
              MO Center=  5.3D-14,  1.9D-13, -5.7D-17, r^2= 3.1D+00
   Bfn.  Coefficient  Atom+Function         Bfn.  Coefficient  Atom+Function  
  ----- ------------  ---------------      ----- ------------  ---------------
    12      0.357134   3 C  s                17     -0.357134   4 C  s         
    27     -0.325007   6 C  s                22      0.325007   5 C  s         

 Vector   15  Occ=2.000000D+00  E=-9.096342D-01
              MO Center=  9.2D-13, -4.7D-14,  1.5D-17, r^2= 8.8D+00
   Bfn.  Coefficient  Atom+Function         Bfn.  Coefficient  Atom+Function  
  ----- ------------  ---------------      ----- ------------  ---------------
    53      0.292220  16 C  s                48     -0.292220  15 C  s         
     2     -0.279081   1 C  s                 7      0.279081   2 C  s         
    22      0.200701   5 C  s                27     -0.200701   6 C  s         

 Vector   16  Occ=2.000000D+00  E=-7.998824D-01
              MO Center= -1.3D-12, -2.7D-14,  8.9D-18, r^2= 8.5D+00
   Bfn.  Coefficient  Atom+Function         Bfn.  Coefficient  Atom+Function  
  ----- ------------  ---------------      ----- ------------  ---------------
    53      0.239929  16 C  s                48      0.239929  15 C  s         
    27      0.229427   6 C  s                22      0.229427   5 C  s         
     2     -0.212930   1 C  s                 7     -0.212930   2 C  s         
    41     -0.159508  12 C  s                36     -0.159508  11 C  s         
    18     -0.159006   4 C  px               13      0.159006   3 C  px        

 Vector   17  Occ=2.000000D+00  E=-7.628255D-01
              MO Center=  1.5D-13, -2.9D-13,  2.6D-18, r^2= 5.0D+00
   Bfn.  Coefficient  Atom+Function         Bfn.  Coefficient  Atom+Function  
  ----- ------------  ---------------      ----- ------------  ---------------
    12      0.324856   3 C  s                17      0.324856   4 C  s         
     4      0.190229   1 C  py                9     -0.190229   2 C  py        
    22     -0.180808   5 C  s                27     -0.180808   6 C  s         
    32      0.173635   8 H  s                31      0.173635   7 H  s         
    23     -0.170127   5 C  px               28      0.170127   6 C  px        

 Vector   18  Occ=2.000000D+00  E=-7.276316D-01
              MO Center=  2.0D-13,  2.2D-13,  4.9D-17, r^2= 1.2D+01
   Bfn.  Coefficient  Atom+Function         Bfn.  Coefficient  Atom+Function  
  ----- ------------  ---------------      ----- ------------  ---------------
    36      0.297522  11 C  s                41     -0.297522  12 C  s         
    53      0.248206  16 C  s                48     -0.248206  15 C  s         
    46     -0.174840  14 H  s                45      0.174840  13 H  s         
    57     -0.163891  17 H  s                58      0.163891  18 H  s         

 Vector   19  Occ=2.000000D+00  E=-6.967762D-01
              MO Center=  5.4D-13, -7.4D-14,  2.6D-17, r^2= 7.9D+00
   Bfn.  Coefficient  Atom+Function         Bfn.  Coefficient  Atom+Function  
  ----- ------------  ---------------      ----- ------------  ---------------
    24      0.194733   5 C  py               29     -0.194733   6 C  py        
    36      0.187351  11 C  s                41      0.187351  12 C  s         
    19     -0.174755   4 C  py               14      0.174755   3 C  py        
     7     -0.170812   2 C  s                 2     -0.170812   1 C  s         
    34      0.168856  10 H  s                33      0.168856   9 H  s         

 Vector   20  Occ=2.000000D+00  E=-6.280516D-01
              MO Center= -8.4D-13, -2.2D-13, -1.6D-17, r^2= 9.3D+00
   Bfn.  Coefficient  Atom+Function         Bfn.  Coefficient  Atom+Function  
  ----- ------------  ---------------      ----- ------------  ---------------
    55      0.204642  16 C  py               50     -0.204642  15 C  py        
    42     -0.183715  12 C  px               37      0.183715  11 C  px        
    57     -0.178852  17 H  s                58     -0.178852  18 H  s         
    46      0.152731  14 H  s                45      0.152731  13 H  s         

 Vector   21  Occ=2.000000D+00  E=-6.056776D-01
              MO Center=  3.6D-13,  5.0D-13,  5.3D-17, r^2= 1.0D+01
   Bfn.  Coefficient  Atom+Function         Bfn.  Coefficient  Atom+Function  
  ----- ------------  ---------------      ----- ------------  ---------------
    43      0.214566  12 C  py               38      0.214566  11 C  py        
    54     -0.202222  16 C  px               49     -0.202222  15 C  px        
    13     -0.182040   3 C  px               18     -0.182040   4 C  px        
    59     -0.179096  19 H  s                60      0.179096  20 H  s         
    45     -0.165300  13 H  s                46      0.165300  14 H  s         

 Vector   22  Occ=2.000000D+00  E=-5.729414D-01
              MO Center=  9.9D-13, -1.0D-12,  4.2D-17, r^2= 7.0D+00
   Bfn.  Coefficient  Atom+Function         Bfn.  Coefficient  Atom+Function  
  ----- ------------  ---------------      ----- ------------  ---------------
    34      0.234898  10 H  s                33     -0.234898   9 H  s         
    31      0.225759   7 H  s                32     -0.225759   8 H  s         
     2     -0.223492   1 C  s                 7      0.223492   2 C  s         
    19      0.221116   4 C  py               14      0.221116   3 C  py        
    28     -0.178924   6 C  px               23     -0.178924   5 C  px        

 Vector   23  Occ=2.000000D+00  E=-5.536030D-01
              MO Center=  2.6D-12,  3.2D-13, -1.6D-17, r^2= 8.9D+00
   Bfn.  Coefficient  Atom+Function         Bfn.  Coefficient  Atom+Function  
  ----- ------------  ---------------      ----- ------------  ---------------
    50      0.252671  15 C  py               55      0.252671  16 C  py        
    29      0.248663   6 C  py               24      0.248663   5 C  py        
    58     -0.222772  18 H  s                57      0.222772  17 H  s         
     9     -0.221337   2 C  py                4     -0.221337   1 C  py        
    42     -0.178673  12 C  px               37     -0.178673  11 C  px        

 Vector   24  Occ=2.000000D+00  E=-5.531660D-01
              MO Center= -1.9D-12, -1.2D-13,  5.3D-18, r^2= 1.5D+01
   Bfn.  Coefficient  Atom+Function         Bfn.  Coefficient  Atom+Function  
  ----- ------------  ---------------      ----- ------------  ---------------
    54      0.336168  16 C  px               49     -0.336168  15 C  px        
    60     -0.268358  20 H  s                59     -0.268358  19 H  s         
    38      0.249395  11 C  py               43     -0.249395  12 C  py        
    45     -0.151362  13 H  s                46     -0.151362  14 H  s         

 Vector   25  Occ=2.000000D+00  E=-5.253585D-01
              MO Center=  2.6D-13, -2.1D-14, -6.2D-18, r^2= 4.4D+00
   Bfn.  Coefficient  Atom+Function         Bfn.  Coefficient  Atom+Function  
  ----- ------------  ---------------      ----- ------------  ---------------
    19      0.298686   4 C  py               14      0.298686   3 C  py        
    32     -0.258504   8 H  s                31      0.258504   7 H  s         
    23      0.232008   5 C  px               28      0.232008   6 C  px        
    33      0.223597   9 H  s                34     -0.223597  10 H  s         
    24      0.180130   5 C  py               29      0.180130   6 C  py        

 Vector   26  Occ=2.000000D+00  E=-4.966981D-01
              MO Center= -4.2D-12,  2.0D-12,  2.2D-17, r^2= 8.9D+00
   Bfn.  Coefficient  Atom+Function         Bfn.  Coefficient  Atom+Function  
  ----- ------------  ---------------      ----- ------------  ---------------
    49      0.238353  15 C  px               54      0.238353  16 C  px        
    13     -0.222455   3 C  px               18     -0.222455   4 C  px        
    43     -0.202872  12 C  py               38     -0.202872  11 C  py        
    37     -0.187813  11 C  px               42     -0.187813  12 C  px        
    23      0.185241   5 C  px               28      0.185241   6 C  px        

 Vector   27  Occ=2.000000D+00  E=-4.925275D-01
              MO Center=  1.6D-12, -1.7D-12,  8.6D-17, r^2= 1.2D+01
   Bfn.  Coefficient  Atom+Function         Bfn.  Coefficient  Atom+Function  
  ----- ------------  ---------------      ----- ------------  ---------------
    50      0.295894  15 C  py               55     -0.295894  16 C  py        
    57      0.273184  17 H  s                58      0.273184  18 H  s         
    38     -0.209735  11 C  py               43      0.209735  12 C  py        
    45      0.202962  13 H  s                46      0.202962  14 H  s         
    31     -0.156849   7 H  s                32     -0.156849   8 H  s         

 Vector   28  Occ=2.000000D+00  E=-4.637293D-01
              MO Center=  5.9D-13, -2.7D-13,  6.1D-16, r^2= 3.6D+00
   Bfn.  Coefficient  Atom+Function         Bfn.  Coefficient  Atom+Function  
  ----- ------------  ---------------      ----- ------------  ---------------
    10      0.331503   2 C  pz                5      0.331503   1 C  pz        
    20      0.302830   4 C  pz               15      0.302830   3 C  pz        
    25      0.301867   5 C  pz               30      0.301867   6 C  pz        
    39      0.165580  11 C  pz               44      0.165580  12 C  pz        

 Vector   29  Occ=2.000000D+00  E=-4.464305D-01
              MO Center=  1.3D-12, -4.6D-13, -3.0D-17, r^2= 1.2D+01
   Bfn.  Coefficient  Atom+Function         Bfn.  Coefficient  Atom+Function  
  ----- ------------  ---------------      ----- ------------  ---------------
    45      0.257252  13 H  s                46     -0.257252  14 H  s         
     3     -0.244155   1 C  px                8     -0.244155   2 C  px        
    57      0.226296  17 H  s                58     -0.226296  18 H  s         
    38     -0.213696  11 C  py               43     -0.213696  12 C  py        
    60      0.211965  20 H  s                59     -0.211965  19 H  s         

 Vector   30  Occ=2.000000D+00  E=-4.216538D-01
              MO Center= -2.1D-13,  8.3D-13,  3.4D-16, r^2= 5.7D+00
   Bfn.  Coefficient  Atom+Function         Bfn.  Coefficient  Atom+Function  
  ----- ------------  ---------------      ----- ------------  ---------------
    13      0.267474   3 C  px               18     -0.267474   4 C  px        
     3     -0.259496   1 C  px                8      0.259496   2 C  px        
    33     -0.253896   9 H  s                34     -0.253896  10 H  s         
    37     -0.233055  11 C  px               42      0.233055  12 C  px        
    28      0.222929   6 C  px               23     -0.222929   5 C  px        

 Vector   31  Occ=2.000000D+00  E=-4.156206D-01
              MO Center=  3.5D-13,  6.0D-13, -3.3D-17, r^2= 6.3D+00
   Bfn.  Coefficient  Atom+Function         Bfn.  Coefficient  Atom+Function  
  ----- ------------  ---------------      ----- ------------  ---------------
     4      0.278251   1 C  py                9     -0.278251   2 C  py        
    29     -0.268464   6 C  py               24      0.268464   5 C  py        
    31     -0.251628   7 H  s                32     -0.251628   8 H  s         
    14     -0.209963   3 C  py               19      0.209963   4 C  py        
    45     -0.183772  13 H  s                46     -0.183772  14 H  s         

 Vector   32  Occ=2.000000D+00  E=-3.769629D-01
              MO Center= -3.8D-12,  1.6D-13,  6.2D-16, r^2= 8.6D+00
   Bfn.  Coefficient  Atom+Function         Bfn.  Coefficient  Atom+Function  
  ----- ------------  ---------------      ----- ------------  ---------------
    44      0.383215  12 C  pz               39     -0.383215  11 C  pz        
     5      0.318674   1 C  pz               10     -0.318674   2 C  pz        
    56      0.306665  16 C  pz               51     -0.306665  15 C  pz        

 Vector   33  Occ=2.000000D+00  E=-3.151265D-01
              MO Center=  3.2D-12, -3.1D-13, -6.4D-16, r^2= 1.1D+01
   Bfn.  Coefficient  Atom+Function         Bfn.  Coefficient  Atom+Function  
  ----- ------------  ---------------      ----- ------------  ---------------
    51      0.426290  15 C  pz               56      0.426290  16 C  pz        
    39      0.415177  11 C  pz               44      0.415177  12 C  pz        
    30     -0.164937   6 C  pz               25     -0.164937   5 C  pz        
    20     -0.164511   4 C  pz               15     -0.164511   3 C  pz        

 Vector   34  Occ=2.000000D+00  E=-2.783629D-01
              MO Center=  4.4D-14,  3.8D-13, -7.3D-17, r^2= 2.7D+00
   Bfn.  Coefficient  Atom+Function         Bfn.  Coefficient  Atom+Function  
  ----- ------------  ---------------      ----- ------------  ---------------
    25      0.461493   5 C  pz               30     -0.461493   6 C  pz        
    15      0.459817   3 C  pz               20     -0.459817   4 C  pz        

 Vector   35  Occ=2.000000D+00  E=-2.221891D-01
              MO Center= -2.4D-15,  6.3D-14,  4.9D-18, r^2= 7.2D+00
   Bfn.  Coefficient  Atom+Function         Bfn.  Coefficient  Atom+Function  
  ----- ------------  ---------------      ----- ------------  ---------------
     5      0.417993   1 C  pz               10     -0.417993   2 C  pz        
    51      0.358181  15 C  pz               56     -0.358181  16 C  pz        
    30      0.232002   6 C  pz               25     -0.232002   5 C  pz        
    15      0.231891   3 C  pz               20     -0.231891   4 C  pz        
    39      0.218350  11 C  pz               44     -0.218350  12 C  pz        

 Vector   36  Occ=0.000000D+00  E= 1.989934D-01
              MO Center= -1.7D-13, -3.5D-14,  1.6D-17, r^2= 7.3D+00
   Bfn.  Coefficient  Atom+Function         Bfn.  Coefficient  Atom+Function  
  ----- ------------  ---------------      ----- ------------  ---------------
    10      0.471533   2 C  pz                5      0.471533   1 C  pz        
    56     -0.414933  16 C  pz               51     -0.414933  15 C  pz        
    25     -0.278567   5 C  pz               30     -0.278567   6 C  pz        
    20     -0.249971   4 C  pz               15     -0.249971   3 C  pz        
    44      0.246933  12 C  pz               39      0.246933  11 C  pz        

 Vector   37  Occ=0.000000D+00  E= 2.685160D-01
              MO Center= -7.8D-14, -6.8D-13, -7.5D-17, r^2= 2.7D+00
   Bfn.  Coefficient  Atom+Function         Bfn.  Coefficient  Atom+Function  
  ----- ------------  ---------------      ----- ------------  ---------------
    20      0.578558   4 C  pz               15      0.578558   3 C  pz        
    30     -0.558107   6 C  pz               25     -0.558107   5 C  pz        

 Vector   38  Occ=0.000000D+00  E= 3.088253D-01
              MO Center= -2.2D-12,  4.8D-13,  1.2D-16, r^2= 1.1D+01
   Bfn.  Coefficient  Atom+Function         Bfn.  Coefficient  Atom+Function  
  ----- ------------  ---------------      ----- ------------  ---------------
    56      0.531240  16 C  pz               51     -0.531240  15 C  pz        
    44     -0.524389  12 C  pz               39      0.524389  11 C  pz        
    15      0.225540   3 C  pz               20     -0.225540   4 C  pz        
    25     -0.220432   5 C  pz               30      0.220432   6 C  pz        

 Vector   39  Occ=0.000000D+00  E= 3.970773D-01
              MO Center=  2.8D-12, -1.2D-13,  7.6D-17, r^2= 8.4D+00
   Bfn.  Coefficient  Atom+Function         Bfn.  Coefficient  Atom+Function  
  ----- ------------  ---------------      ----- ------------  ---------------
    39      0.535068  11 C  pz               44      0.535068  12 C  pz        
    10     -0.473496   2 C  pz                5     -0.473496   1 C  pz        
    51     -0.407351  15 C  pz               56     -0.407351  16 C  pz        
    30      0.186776   6 C  pz               25      0.186776   5 C  pz        
    15      0.161862   3 C  pz               20      0.161862   4 C  pz        

 Vector   40  Occ=0.000000D+00  E= 5.217581D-01
              MO Center= -4.3D-13,  3.2D-13, -1.3D-16, r^2= 3.8D+00
   Bfn.  Coefficient  Atom+Function         Bfn.  Coefficient  Atom+Function  
  ----- ------------  ---------------      ----- ------------  ---------------
     5      0.538712   1 C  pz               10     -0.538712   2 C  pz        
    25      0.471487   5 C  pz               30     -0.471487   6 C  pz        
    15     -0.469482   3 C  pz               20      0.469482   4 C  pz        
    44     -0.278748  12 C  pz               39      0.278748  11 C  pz        
    51     -0.158473  15 C  pz               56      0.158473  16 C  pz        

 Vector   41  Occ=0.000000D+00  E= 5.650170D-01
              MO Center=  2.0D-12, -1.4D-12, -1.5D-16, r^2= 8.7D+00
   Bfn.  Coefficient  Atom+Function         Bfn.  Coefficient  Atom+Function  
  ----- ------------  ---------------      ----- ------------  ---------------
    34      0.434795  10 H  s                33      0.434795   9 H  s         
    32      0.420941   8 H  s                31      0.420941   7 H  s         
     7     -0.380057   2 C  s                 2     -0.380057   1 C  s         
    59      0.353829  19 H  s                60      0.353829  20 H  s         
    37     -0.325053  11 C  px               42      0.325053  12 C  px        

 Vector   42  Occ=0.000000D+00  E= 5.755620D-01
              MO Center= -2.2D-12,  1.6D-12, -9.4D-18, r^2= 1.0D+01
   Bfn.  Coefficient  Atom+Function         Bfn.  Coefficient  Atom+Function  
  ----- ------------  ---------------      ----- ------------  ---------------
    46      0.448710  14 H  s                45     -0.448710  13 H  s         
    14     -0.355529   3 C  py               19     -0.355529   4 C  py        
    43     -0.349982  12 C  py               38     -0.349982  11 C  py        
    57      0.321566  17 H  s                58     -0.321566  18 H  s         
    31      0.318897   7 H  s                32     -0.318897   8 H  s         

 Vector   43  Occ=0.000000D+00  E= 6.215609D-01
              MO Center=  4.5D-14,  1.8D-12, -4.2D-17, r^2= 1.2D+01
   Bfn.  Coefficient  Atom+Function         Bfn.  Coefficient  Atom+Function  
  ----- ------------  ---------------      ----- ------------  ---------------
    46      0.589560  14 H  s                45      0.589560  13 H  s         
    17      0.397882   4 C  s                12      0.397882   3 C  s         
    36     -0.394571  11 C  s                41     -0.394571  12 C  s         
    57     -0.381370  17 H  s                58     -0.381370  18 H  s         
    43     -0.350340  12 C  py               38      0.350340  11 C  py        

 Vector   44  Occ=0.000000D+00  E= 6.258005D-01
              MO Center= -7.2D-13, -6.9D-13,  3.3D-17, r^2= 8.4D+00
   Bfn.  Coefficient  Atom+Function         Bfn.  Coefficient  Atom+Function  
  ----- ------------  ---------------      ----- ------------  ---------------
    41      0.529759  12 C  s                36     -0.529759  11 C  s         
     3      0.453180   1 C  px                8      0.453180   2 C  px        
    34      0.408895  10 H  s                33     -0.408895   9 H  s         
    59     -0.389468  19 H  s                60      0.389468  20 H  s         
    53     -0.337637  16 C  s                48      0.337637  15 C  s         

 Vector   45  Occ=0.000000D+00  E= 6.582331D-01
              MO Center=  1.8D-11,  7.0D-12,  1.6D-16, r^2= 1.2D+01
   Bfn.  Coefficient  Atom+Function         Bfn.  Coefficient  Atom+Function  
  ----- ------------  ---------------      ----- ------------  ---------------
    48      0.683581  15 C  s                53      0.683581  16 C  s         
    22      0.582862   5 C  s                27      0.582862   6 C  s         
    57     -0.541816  17 H  s                58     -0.541816  18 H  s         
    12     -0.457373   3 C  s                17     -0.457373   4 C  s         
    59     -0.330823  19 H  s                60     -0.330823  20 H  s         

 Vector   46  Occ=0.000000D+00  E= 6.593961D-01
              MO Center= -1.8D-11, -9.1D-12, -5.7D-17, r^2= 1.0D+01
   Bfn.  Coefficient  Atom+Function         Bfn.  Coefficient  Atom+Function  
  ----- ------------  ---------------      ----- ------------  ---------------
    27      0.611108   6 C  s                22     -0.611108   5 C  s         
    53      0.533516  16 C  s                48     -0.533516  15 C  s         
     2     -0.492297   1 C  s                 7      0.492297   2 C  s         
    17     -0.461376   4 C  s                12      0.461376   3 C  s         
    58     -0.460454  18 H  s                57      0.460454  17 H  s         

 Vector   47  Occ=0.000000D+00  E= 6.771784D-01
              MO Center=  1.6D-12, -8.5D-13, -3.2D-17, r^2= 9.1D+00
   Bfn.  Coefficient  Atom+Function         Bfn.  Coefficient  Atom+Function  
  ----- ------------  ---------------      ----- ------------  ---------------
    32      0.598282   8 H  s                31     -0.598282   7 H  s         
    41     -0.467284  12 C  s                36      0.467284  11 C  s         
    46      0.438018  14 H  s                45     -0.438018  13 H  s         
    17     -0.361075   4 C  s                12      0.361075   3 C  s         
    59     -0.328660  19 H  s                60      0.328660  20 H  s         

 Vector   48  Occ=0.000000D+00  E= 6.941876D-01
              MO Center=  4.7D-12,  1.3D-12,  4.1D-17, r^2= 7.3D+00
   Bfn.  Coefficient  Atom+Function         Bfn.  Coefficient  Atom+Function  
  ----- ------------  ---------------      ----- ------------  ---------------
     7      0.796657   2 C  s                 2      0.796657   1 C  s         
    36     -0.570542  11 C  s                41     -0.570542  12 C  s         
    27     -0.469189   6 C  s                22     -0.469189   5 C  s         
    12     -0.444274   3 C  s                17     -0.444274   4 C  s         
    48      0.390413  15 C  s                53      0.390413  16 C  s         

 Vector   49  Occ=0.000000D+00  E= 7.067088D-01
              MO Center= -4.8D-12, -8.4D-14,  2.0D-17, r^2= 1.1D+01
   Bfn.  Coefficient  Atom+Function         Bfn.  Coefficient  Atom+Function  
  ----- ------------  ---------------      ----- ------------  ---------------
    53      0.702319  16 C  s                48     -0.702319  15 C  s         
    57      0.514851  17 H  s                58     -0.514851  18 H  s         
    34      0.488205  10 H  s                33     -0.488205   9 H  s         
    41     -0.430457  12 C  s                36      0.430457  11 C  s         
    27     -0.425215   6 C  s                22      0.425215   5 C  s         

 Vector   50  Occ=0.000000D+00  E= 7.401369D-01
              MO Center=  3.0D-13,  6.7D-13,  8.0D-17, r^2= 1.0D+01
   Bfn.  Coefficient  Atom+Function         Bfn.  Coefficient  Atom+Function  
  ----- ------------  ---------------      ----- ------------  ---------------
    12      0.727778   3 C  s                17      0.727778   4 C  s         
    22     -0.614473   5 C  s                27     -0.614473   6 C  s         
    59     -0.456843  19 H  s                60     -0.456843  20 H  s         
    53      0.397600  16 C  s                48      0.397600  15 C  s         
    49      0.371886  15 C  px               54     -0.371886  16 C  px        

 Vector   51  Occ=0.000000D+00  E= 8.022260D-01
              MO Center=  3.7D-13, -4.6D-13, -4.7D-17, r^2= 6.8D+00
   Bfn.  Coefficient  Atom+Function         Bfn.  Coefficient  Atom+Function  
  ----- ------------  ---------------      ----- ------------  ---------------
     3      0.587396   1 C  px                8     -0.587396   2 C  px        
    36      0.485997  11 C  s                41      0.485997  12 C  s         
     7      0.462728   2 C  s                 2      0.462728   1 C  s         
    19     -0.447412   4 C  py               14      0.447412   3 C  py        
    55     -0.357531  16 C  py               50      0.357531  15 C  py        

 Vector   52  Occ=0.000000D+00  E= 8.256562D-01
              MO Center=  2.5D-13, -1.4D-13,  1.0D-17, r^2= 7.8D+00
   Bfn.  Coefficient  Atom+Function         Bfn.  Coefficient  Atom+Function  
  ----- ------------  ---------------      ----- ------------  ---------------
    17      0.642779   4 C  s                12     -0.642779   3 C  s         
     9      0.555599   2 C  py                4      0.555599   1 C  py        
    54      0.490265  16 C  px               49      0.490265  15 C  px        
    23     -0.480435   5 C  px               28     -0.480435   6 C  px        
    60      0.356461  20 H  s                59     -0.356461  19 H  s         

 Vector   53  Occ=0.000000D+00  E= 8.606162D-01
              MO Center= -1.4D-14,  1.9D-13, -4.6D-17, r^2= 5.6D+00
   Bfn.  Coefficient  Atom+Function         Bfn.  Coefficient  Atom+Function  
  ----- ------------  ---------------      ----- ------------  ---------------
    19      0.530443   4 C  py               14     -0.530443   3 C  py        
    29     -0.520210   6 C  py               24      0.520210   5 C  py        
    34     -0.509444  10 H  s                33     -0.509444   9 H  s         
    31      0.441688   7 H  s                32      0.441688   8 H  s         
    28     -0.392860   6 C  px               23      0.392860   5 C  px        

 Vector   54  Occ=0.000000D+00  E= 8.877588D-01
              MO Center=  1.6D-13, -1.7D-14,  1.5D-17, r^2= 5.2D+00
   Bfn.  Coefficient  Atom+Function         Bfn.  Coefficient  Atom+Function  
  ----- ------------  ---------------      ----- ------------  ---------------
    18      0.715864   4 C  px               13      0.715864   3 C  px        
    22     -0.610595   5 C  s                27      0.610595   6 C  s         
    36      0.434047  11 C  s                41     -0.434047  12 C  s         
    28      0.383557   6 C  px               23      0.383557   5 C  px        
     2      0.361699   1 C  s                 7     -0.361699   2 C  s         

 Vector   55  Occ=0.000000D+00  E= 9.210089D-01
              MO Center= -4.0D-12, -2.7D-14,  1.4D-17, r^2= 1.0D+01
   Bfn.  Coefficient  Atom+Function         Bfn.  Coefficient  Atom+Function  
  ----- ------------  ---------------      ----- ------------  ---------------
     2      0.648645   1 C  s                 7     -0.648645   2 C  s         
    55     -0.506261  16 C  py               50     -0.506261  15 C  py        
    42     -0.483947  12 C  px               37     -0.483947  11 C  px        
    24     -0.392600   5 C  py               29     -0.392600   6 C  py        
    58     -0.345383  18 H  s                57      0.345383  17 H  s         

 Vector   56  Occ=0.000000D+00  E= 9.399496D-01
              MO Center=  1.0D-12, -1.8D-13, -3.6D-17, r^2= 9.1D+00
   Bfn.  Coefficient  Atom+Function         Bfn.  Coefficient  Atom+Function  
  ----- ------------  ---------------      ----- ------------  ---------------
    38      0.555999  11 C  py               43     -0.555999  12 C  py        
    54     -0.540449  16 C  px               49      0.540449  15 C  px        
    18      0.393444   4 C  px               13     -0.393444   3 C  px        
     8     -0.360463   2 C  px                3      0.360463   1 C  px        
    28      0.327501   6 C  px               23     -0.327501   5 C  px        

 Vector   57  Occ=0.000000D+00  E= 9.902862D-01
              MO Center= -2.6D-12,  1.7D-13, -2.7D-17, r^2= 9.4D+00
   Bfn.  Coefficient  Atom+Function         Bfn.  Coefficient  Atom+Function  
  ----- ------------  ---------------      ----- ------------  ---------------
    42      0.679689  12 C  px               37     -0.679689  11 C  px        
    55      0.584524  16 C  py               50     -0.584524  15 C  py        
    23      0.429709   5 C  px               28     -0.429709   6 C  px        
     8     -0.411418   2 C  px                3      0.411418   1 C  px        
    18     -0.364614   4 C  px               13      0.364614   3 C  px        

 Vector   58  Occ=0.000000D+00  E= 1.027265D+00
              MO Center=  3.4D-12, -1.4D-13,  1.5D-17, r^2= 9.5D+00
   Bfn.  Coefficient  Atom+Function         Bfn.  Coefficient  Atom+Function  
  ----- ------------  ---------------      ----- ------------  ---------------
    38      0.610477  11 C  py               43      0.610477  12 C  py        
    49      0.534995  15 C  px               54      0.534995  16 C  px        
    48     -0.526961  15 C  s                53      0.526961  16 C  s         
     4     -0.469233   1 C  py                9     -0.469233   2 C  py        
    37      0.455391  11 C  px               42      0.455391  12 C  px        

 Vector   59  Occ=0.000000D+00  E= 1.107702D+00
              MO Center=  6.3D-13, -3.5D-14,  7.2D-17, r^2= 5.1D+00
   Bfn.  Coefficient  Atom+Function         Bfn.  Coefficient  Atom+Function  
  ----- ------------  ---------------      ----- ------------  ---------------
     4      0.712270   1 C  py                9     -0.712270   2 C  py        
    13      0.546867   3 C  px               18     -0.546867   4 C  px        
    29      0.442269   6 C  py               24     -0.442269   5 C  py        
    23      0.425289   5 C  px               28     -0.425289   6 C  px        
    38      0.416183  11 C  py               43     -0.416183  12 C  py        

 Vector   60  Occ=0.000000D+00  E= 1.124937D+00
              MO Center= -1.9D-13,  2.9D-14,  3.0D-18, r^2= 3.4D+00
   Bfn.  Coefficient  Atom+Function         Bfn.  Coefficient  Atom+Function  
  ----- ------------  ---------------      ----- ------------  ---------------
     3      0.663177   1 C  px                8      0.663177   2 C  px        
    14      0.565179   3 C  py               19      0.565179   4 C  py        
    29     -0.495937   6 C  py               24     -0.495937   5 C  py        
    27     -0.411546   6 C  s                22      0.411546   5 C  s         
    28     -0.392043   6 C  px               23     -0.392043   5 C  px        


                                 Final MO vectors
                                 ----------------


 global array: scf_init: MOs[1:60,1:60],  handle: -1000 

            1           2           3           4           5           6  
       ----------- ----------- ----------- ----------- ----------- -----------
   1      -0.70148     0.70154     0.00968     0.01002     0.00165    -0.00338
   2      -0.02526     0.02518    -0.00379    -0.00373     0.00165    -0.00632
   3      -0.00066     0.00045     0.00295     0.00294    -0.00006    -0.00193
   4      -0.00000     0.00004    -0.00045    -0.00045    -0.00361     0.00164
   5       0.00000    -0.00000    -0.00000     0.00000    -0.00000     0.00000
   6       0.70148     0.70154    -0.00968     0.01002    -0.00165    -0.00338
   7       0.02526     0.02518     0.00379    -0.00373    -0.00165    -0.00632
   8      -0.00066    -0.00045     0.00295    -0.00294    -0.00006     0.00193
   9      -0.00000    -0.00004    -0.00045     0.00045    -0.00361    -0.00164
  10      -0.00000    -0.00000    -0.00000    -0.00000     0.00000    -0.00000
  11      -0.00582     0.00322    -0.00369    -0.00627     0.37243     0.29624
  12       0.00477    -0.00461    -0.00007    -0.00019     0.00914     0.00632
  13      -0.00199     0.00202     0.00003     0.00001    -0.00237    -0.00275
  14      -0.00243     0.00244     0.00000     0.00006     0.00006     0.00032
  15       0.00000    -0.00000     0.00000     0.00000    -0.00000     0.00000
  16       0.00582     0.00322     0.00369    -0.00627    -0.37243     0.29624
  17      -0.00477    -0.00461     0.00007    -0.00019    -0.00914     0.00632
  18      -0.00199    -0.00202     0.00003    -0.00001    -0.00237     0.00275
  19      -0.00243    -0.00244     0.00000    -0.00006     0.00006    -0.00032
  20      -0.00000    -0.00000     0.00000    -0.00000    -0.00000    -0.00000
  21       0.00580     0.00328     0.00243    -0.00514     0.59486     0.63623
  22      -0.00473    -0.00456    -0.00002    -0.00009     0.01885     0.02092
  23      -0.00111    -0.00114    -0.00000     0.00002     0.00110     0.00094
  24       0.00291     0.00292    -0.00002     0.00007    -0.00076    -0.00054
  25      -0.00000    -0.00000    -0.00000     0.00000    -0.00000    -0.00000
  26      -0.00580     0.00328    -0.00243    -0.00514    -0.59486     0.63623
  27       0.00473    -0.00456     0.00002    -0.00009    -0.01885     0.02092
  28      -0.00111     0.00114    -0.00000    -0.00002     0.00110    -0.00094
  29       0.00291    -0.00292    -0.00002    -0.00007    -0.00076     0.00054
  30       0.00000    -0.00000    -0.00000    -0.00000    -0.00000     0.00000
  31      -0.00006    -0.00002     0.00001     0.00001    -0.00239    -0.00202
  32       0.00006    -0.00002    -0.00001     0.00001     0.00239    -0.00202
  33       0.00005    -0.00003     0.00009    -0.00009    -0.00393    -0.00436
  34      -0.00005    -0.00003    -0.00009    -0.00009     0.00393    -0.00436
  35      -0.00894    -0.00927    -0.70136     0.70132     0.00014     0.00742
  36      -0.00449    -0.00455    -0.02500     0.02499     0.00007     0.00041
  37       0.00289     0.00293    -0.00064     0.00065    -0.00005     0.00002
  38      -0.00062    -0.00063    -0.00051     0.00051    -0.00003     0.00004
  39       0.00000     0.00000     0.00000     0.00000     0.00000    -0.00000
  40       0.00894    -0.00927     0.70136     0.70132    -0.00014     0.00742
  41       0.00449    -0.00455     0.02500     0.02499    -0.00007     0.00041
  42       0.00289    -0.00293    -0.00064    -0.00065    -0.00005    -0.00002
  43      -0.00062     0.00063    -0.00051    -0.00051    -0.00003    -0.00004
  44      -0.00000     0.00000    -0.00000     0.00000     0.00000    -0.00000
  45       0.00009     0.00009     0.00478    -0.00478    -0.00000    -0.00013
  46      -0.00009     0.00009    -0.00478    -0.00478     0.00000    -0.00013
  47      -0.00052    -0.00049    -0.01784     0.01784    -0.00075    -0.00094
  48       0.00018     0.00019     0.00474    -0.00474    -0.00004    -0.00017
  49      -0.00010    -0.00010    -0.00238     0.00238     0.00003     0.00011
  50       0.00004     0.00004    -0.00212     0.00212    -0.00004    -0.00001
  51       0.00000     0.00000    -0.00000     0.00000     0.00000    -0.00000
  52       0.00052    -0.00049     0.01784     0.01784     0.00075    -0.00094
  53      -0.00018     0.00019    -0.00474    -0.00474     0.00004    -0.00017
  54      -0.00010     0.00010    -0.00238    -0.00238     0.00003    -0.00011
  55       0.00004    -0.00004    -0.00212    -0.00212    -0.00004     0.00001
  56      -0.00000     0.00000     0.00000     0.00000     0.00000    -0.00000
  57      -0.00010    -0.00010     0.00006    -0.00006     0.00009     0.00010
  58       0.00010    -0.00010    -0.00006    -0.00006    -0.00009     0.00010
  59      -0.00002    -0.00002     0.00004    -0.00004    -0.00001    -0.00001
  60       0.00002    -0.00002    -0.00004    -0.00004     0.00001    -0.00001

            7           8           9          10          11          12  
       ----------- ----------- ----------- ----------- ----------- -----------
   1       0.00716    -0.00118     0.00027     0.00024    -0.10669    -0.10127
   2       0.00713    -0.00230     0.00027     0.00027     0.27537     0.27080
   3       0.00237    -0.00136    -0.00012    -0.00012     0.03823    -0.03179
   4       0.00044    -0.00337     0.00005     0.00005    -0.00511     0.00392
   5      -0.00000    -0.00000    -0.00000    -0.00000    -0.00000     0.00000
   6      -0.00716    -0.00118    -0.00027     0.00024    -0.10669     0.10127
   7      -0.00713    -0.00230    -0.00027     0.00027     0.27537    -0.27080
   8       0.00237     0.00136    -0.00012     0.00012    -0.03823    -0.03179
   9       0.00044     0.00337     0.00005    -0.00005     0.00511     0.00392
  10       0.00000     0.00000     0.00000    -0.00000    -0.00000     0.00000
  11      -0.59454     0.63600     0.00026     0.00041    -0.09665    -0.03774
  12      -0.02430     0.02494    -0.00001    -0.00007     0.24727     0.10004
  13      -0.00194     0.00161     0.00006     0.00002     0.01476    -0.05660
  14       0.00098    -0.00070     0.00001     0.00002    -0.05219    -0.02889
  15      -0.00000     0.00000    -0.00000    -0.00000    -0.00000     0.00000
  16       0.59454     0.63600    -0.00026     0.00041    -0.09665     0.03774
  17       0.02430     0.02494     0.00001    -0.00007     0.24727    -0.10004
  18      -0.00194    -0.00161     0.00006    -0.00002    -0.01476    -0.05660
  19       0.00098     0.00070     0.00001    -0.00002     0.05219    -0.02889
  20       0.00000     0.00000    -0.00000    -0.00000    -0.00000     0.00000
  21       0.37194    -0.29574    -0.00107     0.00108    -0.09646     0.04167
  22       0.01787    -0.01501    -0.00000    -0.00001     0.24712    -0.11107
  23      -0.00292     0.00309     0.00009    -0.00008    -0.03082    -0.04421
  24       0.00001    -0.00024    -0.00001     0.00000    -0.04482     0.04505
  25       0.00000     0.00000     0.00000    -0.00000    -0.00000     0.00000
  26      -0.37194    -0.29574     0.00107     0.00108    -0.09646    -0.04167
  27      -0.01787    -0.01501     0.00000    -0.00001     0.24712     0.11107
  28      -0.00292    -0.00309     0.00009     0.00008     0.03082    -0.04421
  29       0.00001     0.00024    -0.00001    -0.00000     0.04482     0.04505
  30       0.00000     0.00000    -0.00000    -0.00000    -0.00000     0.00000
  31       0.00405    -0.00433    -0.00000    -0.00000     0.04416     0.02580
  32      -0.00405    -0.00433     0.00000    -0.00000     0.04416    -0.02580
  33      -0.00261     0.00202    -0.00005     0.00006     0.04439    -0.02948
  34       0.00261     0.00202     0.00005     0.00006     0.04439     0.02948
  35       0.00456     0.00355     0.01740    -0.01740    -0.04969     0.11307
  36       0.00046     0.00018     0.00604    -0.00604     0.12875    -0.29870
  37      -0.00009     0.00002     0.00238    -0.00238    -0.02739     0.00655
  38       0.00007     0.00001     0.00219    -0.00219     0.01418    -0.03765
  39      -0.00000    -0.00000    -0.00000     0.00000     0.00000     0.00000
  40      -0.00456     0.00355    -0.01740    -0.01740    -0.04969    -0.11307
  41      -0.00046     0.00018    -0.00604    -0.00604     0.12875     0.29870
  42      -0.00009    -0.00002     0.00238     0.00238     0.02739     0.00655
  43       0.00007    -0.00001     0.00219     0.00219    -0.01418    -0.03765
  44       0.00000    -0.00000     0.00000     0.00000    -0.00000    -0.00000
  45      -0.00010    -0.00006    -0.00017     0.00017     0.02537    -0.06663
  46       0.00010    -0.00006     0.00017     0.00017     0.02537     0.06663
  47      -0.00066     0.00018    -0.70143     0.70143    -0.02518     0.08141
  48      -0.00014    -0.00004    -0.02536     0.02536     0.06484    -0.21366
  49       0.00008     0.00003     0.00081    -0.00081    -0.02034     0.05099
  50      -0.00000     0.00003     0.00077    -0.00077    -0.01340     0.03946
  51       0.00000    -0.00000    -0.00000     0.00000     0.00000     0.00000
  52       0.00066     0.00018     0.70143     0.70143    -0.02518    -0.08141
  53       0.00014    -0.00004     0.02536     0.02536     0.06484     0.21366
  54       0.00008    -0.00003     0.00081     0.00081     0.02034     0.05099
  55      -0.00000    -0.00003     0.00077     0.00077     0.01340     0.03946
  56       0.00000    -0.00000    -0.00000     0.00000     0.00000    -0.00000
  57       0.00007    -0.00006     0.00473    -0.00473     0.01401    -0.04892
  58      -0.00007    -0.00006    -0.00473    -0.00473     0.01401     0.04892
  59      -0.00001    -0.00000     0.00475    -0.00475     0.01084    -0.04447
  60       0.00001    -0.00000    -0.00475    -0.00475     0.01084     0.04447

           13          14          15          16          17          18  
       ----------- ----------- ----------- ----------- ----------- -----------
   1      -0.00297    -0.01206     0.10028     0.07233     0.05042    -0.01130
   2       0.01021     0.03300    -0.27908    -0.21293    -0.15130     0.03251
   3      -0.09346     0.02275    -0.05887     0.07433     0.06250     0.13878
   4       0.01028     0.12522     0.01830    -0.11357     0.19023    -0.04998
   5       0.00000    -0.00000    -0.00000    -0.00000    -0.00000     0.00000
   6      -0.00297     0.01206    -0.10028     0.07233     0.05042     0.01130
   7       0.01021    -0.03300     0.27908    -0.21293    -0.15130    -0.03251
   8       0.09346     0.02275    -0.05887    -0.07433    -0.06250     0.13878
   9      -0.01028     0.12522     0.01830     0.11357    -0.19023    -0.04998
  10      -0.00000     0.00000    -0.00000    -0.00000    -0.00000     0.00000
  11       0.04598    -0.13091     0.04228    -0.00068    -0.10905    -0.04827
  12      -0.12241     0.35713    -0.11797     0.00038     0.32486     0.14794
  13      -0.03510     0.05908     0.09172     0.15901    -0.04257    -0.00880
  14       0.01541    -0.00179     0.04024     0.03521     0.07454    -0.00503
  15       0.00000    -0.00000    -0.00000    -0.00000    -0.00000     0.00000
  16       0.04598     0.13091    -0.04228    -0.00068    -0.10905     0.04827
  17      -0.12241    -0.35713     0.11797     0.00038     0.32486    -0.14794
  18       0.03510     0.05908     0.09172    -0.15901     0.04257    -0.00880
  19      -0.01541    -0.00179     0.04024    -0.03521    -0.07454    -0.00503
  20      -0.00000    -0.00000    -0.00000     0.00000    -0.00000     0.00000
  21       0.04178    -0.11920    -0.07212    -0.07935     0.06026     0.03028
  22      -0.11048     0.32501     0.20070     0.22943    -0.18081    -0.09235
  23       0.04439    -0.06966     0.04860    -0.03059    -0.17013    -0.07654
  24       0.00207     0.03012    -0.05745     0.06799     0.08230     0.03374
  25      -0.00000    -0.00000    -0.00000     0.00000    -0.00000     0.00000
  26       0.04178     0.11920     0.07212    -0.07935     0.06026    -0.03028
  27      -0.11048    -0.32501    -0.20070     0.22943    -0.18081     0.09235
  28      -0.04439    -0.06966     0.04860     0.03059     0.17013    -0.07654
  29      -0.00207     0.03012    -0.05745    -0.06799    -0.08230     0.03374
  30      -0.00000    -0.00000    -0.00000     0.00000    -0.00000     0.00000
  31      -0.02382     0.09808    -0.03404    -0.01381     0.17364     0.05184
  32      -0.02382    -0.09808     0.03404    -0.01381     0.17364    -0.05184
  33      -0.01812     0.08988     0.05447     0.10624    -0.09277    -0.05588
  34      -0.01812    -0.08988    -0.05447     0.10624    -0.09277     0.05588
  35      -0.11765     0.00033     0.05074     0.05256     0.00696    -0.09654
  36       0.31447    -0.00141    -0.13620    -0.15951    -0.02294     0.29752
  37       0.05834     0.01667    -0.12792     0.13248     0.07442    -0.04484
  38       0.04883     0.01968    -0.04076     0.07718    -0.04193    -0.11289
  39       0.00000     0.00000     0.00000    -0.00000    -0.00000     0.00000
  40      -0.11765    -0.00033    -0.05074     0.05256     0.00696     0.09654
  41       0.31447     0.00141     0.13620    -0.15951    -0.02294    -0.29752
  42      -0.05834     0.01667    -0.12792    -0.13248    -0.07442    -0.04484
  43      -0.04883     0.01968    -0.04076    -0.07718     0.04193    -0.11289
  44       0.00000    -0.00000     0.00000    -0.00000    -0.00000     0.00000
  45       0.07614    -0.00904    -0.03781    -0.08110     0.03153     0.17484
  46       0.07614     0.00904     0.03781    -0.08110     0.03153    -0.17484
  47      -0.11635    -0.01271     0.10674    -0.08250    -0.03462     0.08032
  48       0.31008     0.03382    -0.29222     0.23993     0.10374    -0.24821
  49      -0.05539    -0.00584     0.02094     0.03791     0.04429    -0.09189
  50      -0.05096     0.00080     0.03525     0.03372    -0.01164    -0.11896
  51       0.00000     0.00000     0.00000    -0.00000    -0.00000     0.00000
  52      -0.11635     0.01271    -0.10674    -0.08250    -0.03462    -0.08032
  53       0.31008    -0.03382     0.29222     0.23993     0.10374     0.24821
  54       0.05539    -0.00584     0.02094    -0.03791    -0.04429    -0.09189
  55       0.05096     0.00080     0.03525    -0.03372     0.01164    -0.11896
  56       0.00000    -0.00000     0.00000    -0.00000    -0.00000     0.00000
  57       0.07436     0.01269    -0.07688     0.10484     0.02247    -0.16389
  58       0.07436    -0.01269     0.07688     0.10484     0.02247     0.16389
  59       0.07480     0.00781    -0.08811     0.10145     0.06533    -0.13085
  60       0.07480    -0.00781     0.08811     0.10145     0.06533     0.13085

           19          20          21          22          23          24  
       ----------- ----------- ----------- ----------- ----------- -----------
   1       0.05635     0.02870     0.02568     0.06597    -0.01971     0.01990
   2      -0.17081    -0.09582    -0.08867    -0.22349     0.06676    -0.06515
   3      -0.13501     0.13655     0.13214    -0.03013     0.14030     0.00817
   4      -0.01971    -0.04907     0.11849    -0.10064    -0.22134    -0.01360
   5       0.00000     0.00000    -0.00000     0.00000    -0.00000    -0.00000
   6       0.05635     0.02870    -0.02568    -0.06597     0.01971     0.01990
   7      -0.17081    -0.09582     0.08867     0.22349    -0.06676    -0.06515
   8       0.13501    -0.13655     0.13214    -0.03013     0.14030    -0.00817
   9       0.01971     0.04907     0.11849    -0.10064    -0.22134     0.01360
  10       0.00000     0.00000     0.00000     0.00000    -0.00000    -0.00000
  11      -0.00739     0.01171    -0.02327    -0.04508    -0.00178    -0.02313
  12       0.02548    -0.04483     0.07841     0.15396     0.00340     0.07690
  13       0.09529     0.13768    -0.18204     0.06707     0.11756     0.08074
  14       0.17475    -0.14248     0.02769     0.22112     0.00290    -0.00599
  15       0.00000     0.00000     0.00000     0.00000    -0.00000    -0.00000
  16      -0.00739     0.01171     0.02327     0.04508     0.00178    -0.02313
  17       0.02548    -0.04483    -0.07841    -0.15396    -0.00340     0.07690
  18      -0.09529    -0.13768    -0.18204     0.06707     0.11756    -0.08074
  19      -0.17475     0.14248     0.02769     0.22112     0.00290     0.00599
  20       0.00000     0.00000    -0.00000     0.00000    -0.00000    -0.00000
  21      -0.04991    -0.01688     0.04175     0.04083     0.01136     0.01620
  22       0.15823     0.04801    -0.13643    -0.14102    -0.03587    -0.05945
  23       0.02258    -0.13828     0.09375    -0.17892    -0.06254    -0.13414
  24       0.19473    -0.09332    -0.10327    -0.11622     0.24866    -0.03957
  25       0.00000     0.00000    -0.00000     0.00000    -0.00000    -0.00000
  26      -0.04991    -0.01688    -0.04175    -0.04083    -0.01136     0.01620
  27       0.15823     0.04801     0.13643     0.14102     0.03587    -0.05945
  28      -0.02258     0.13828     0.09375    -0.17892    -0.06254     0.13414
  29      -0.19473     0.09332    -0.10327    -0.11622     0.24866     0.03957
  30       0.00000     0.00000    -0.00000     0.00000    -0.00000    -0.00000
  31       0.09884    -0.14691     0.11132     0.22576    -0.03144     0.00351
  32       0.09884    -0.14691    -0.11132    -0.22576     0.03144     0.00351
  33       0.16886    -0.10361    -0.07136    -0.23490     0.12912    -0.11659
  34       0.16886    -0.10361     0.07136     0.23490    -0.12912    -0.11659
  35      -0.06065    -0.03501    -0.01410     0.01560    -0.00245    -0.02553
  36       0.18735     0.11049     0.04410    -0.04397     0.01483     0.07452
  37       0.01042     0.18372    -0.10405    -0.11900    -0.17867     0.08517
  38      -0.07117    -0.10917     0.21457    -0.04759    -0.04759     0.24939
  39       0.00000     0.00000     0.00000     0.00000    -0.00000    -0.00000
  40      -0.06065    -0.03501     0.01410    -0.01560     0.00245    -0.02553
  41       0.18735     0.11049    -0.04410     0.04397    -0.01483     0.07452
  42      -0.01042    -0.18372    -0.10405    -0.11900    -0.17867    -0.08517
  43       0.07117     0.10917     0.21457    -0.04759    -0.04759    -0.24939
  44       0.00000     0.00000     0.00000     0.00000    -0.00000    -0.00000
  45       0.12516     0.15273    -0.16530    -0.01754     0.01423    -0.15136
  46       0.12516     0.15273     0.16530     0.01754    -0.01423    -0.15136
  47       0.05078     0.01416     0.00664    -0.01166     0.00119    -0.00365
  48      -0.16147    -0.05373    -0.02492     0.04742     0.00610    -0.00094
  49      -0.08157     0.01331    -0.20222     0.14390    -0.03679    -0.33617
  50      -0.08682    -0.20464     0.08979     0.06735     0.25267    -0.01665
  51       0.00000     0.00000    -0.00000     0.00000    -0.00000    -0.00000
  52       0.05078     0.01416    -0.00664     0.01166    -0.00119    -0.00365
  53      -0.16147    -0.05373     0.02492    -0.04742    -0.00610    -0.00094
  54       0.08157    -0.01331    -0.20222     0.14390    -0.03679     0.33617
  55       0.08682     0.20464     0.08979     0.06735     0.25267     0.01665
  56       0.00000     0.00000    -0.00000     0.00000    -0.00000     0.00000
  57      -0.10616    -0.17885     0.08017     0.03906     0.22277     0.02576
  58      -0.10616    -0.17885    -0.08017    -0.03906    -0.22277     0.02576
  59      -0.10015     0.02920    -0.17910     0.11802    -0.09032    -0.26836
  60      -0.10015     0.02920     0.17910    -0.11802     0.09032    -0.26836

           25          26          27          28          29          30  
       ----------- ----------- ----------- ----------- ----------- -----------
   1       0.00257     0.00260     0.02328     0.00000    -0.00983    -0.00210
   2      -0.00864    -0.00952    -0.08354    -0.00000     0.04304     0.01635
   3      -0.07344     0.17615    -0.00456     0.00000    -0.24415    -0.25950
   4      -0.08391     0.17698     0.08389     0.00000     0.09267    -0.16480
   5       0.00000    -0.00000    -0.00000     0.33150     0.00000     0.00000
   6      -0.00257    -0.00260     0.02328    -0.00000     0.00983    -0.00210
   7       0.00864     0.00952    -0.08354     0.00000    -0.04304     0.01635
   8      -0.07344     0.17615     0.00456     0.00000    -0.24415     0.25950
   9      -0.08391     0.17698    -0.08389    -0.00000     0.09267     0.16480
  10       0.00000    -0.00000    -0.00000     0.33150     0.00000     0.00000
  11       0.02569    -0.01703     0.00423    -0.00000     0.00744     0.00407
  12      -0.08248     0.06113    -0.02149     0.00000    -0.02348    -0.01322
[...]
   16  C                 -0.0236670329   0.0000000679   0.0006304841   0.0000123482  -0.0000060092  -0.0035097418   0.0000277829
   17  H                 -0.0000002529  -0.0031316547  -0.0000057177   0.0000099808  -0.0007261699  -0.0000003046   0.0000019512
   18  H                 -0.0031316547  -0.0000002529   0.0000099808  -0.0000057177  -0.0000003046  -0.0007261699   0.0000004809
   19  H                  0.0000000050   0.0011873019   0.0000000684  -0.0000139116   0.0000149017   0.0000000877  -0.0000000081
   20  H                  0.0011873019   0.0000000050  -0.0000139116   0.0000000684   0.0000000877   0.0000149017  -0.0000016866

                               8              9             10             11             12             13             14

    1  C                  0.0012249516   0.0012243608  -0.0245817204   0.0000130329   0.4046039017  -0.0000006342  -0.0255639754
    2  C                 -0.0249390835  -0.0245817204   0.0012243608   0.4046039017   0.0000130329  -0.0255639754  -0.0000006342
    3  C                  0.0000294606  -0.0249077426   0.0012406521   0.0006865305  -0.0282920505  -0.0000149843  -0.0036964583
    4  C                  0.3900809057   0.0012406521  -0.0249077426  -0.0282920505   0.0006865305  -0.0036964583  -0.0000149843
    5  C                  0.0012244482   0.3904073730   0.0000251783  -0.0237283958   0.0007556566   0.0009939573   0.0000212994
    6  C                 -0.0250054681   0.0000251783   0.3904073730   0.0007556566  -0.0237283958   0.0000212994   0.0009939573
    7  H                  0.0000015279  -0.0035337502  -0.0000301051  -0.0000125297  -0.0036426677   0.0000002912   0.0005339380
    8  H                  0.6053345366  -0.0000301051  -0.0035337502  -0.0036426677  -0.0000125297   0.0005339380   0.0000002912
    9  H                 -0.0000301051   0.6036440295   0.0000015872  -0.0027854235  -0.0000134906   0.0000150294  -0.0000011739
   10  H                 -0.0035337502   0.0000015872   0.6036440295  -0.0000134906  -0.0027854235  -0.0000011739   0.0000150294
   11  C                 -0.0036426677  -0.0027854235  -0.0000134906   4.7774126051   0.0000000639   0.3884418815  -0.0000000002
   12  C                 -0.0000125297  -0.0000134906  -0.0027854235   0.0000000639   4.7774126051  -0.0000000002   0.3884418815
   13  H                  0.0005339380   0.0000150294  -0.0000011739   0.3884418815  -0.0000000002   0.6123105762  -0.0000000000
   14  H                  0.0000002912  -0.0000011739   0.0000150294  -0.0000000002   0.3884418815  -0.0000000000   0.6123105762
   15  C                  0.0000277829  -0.0008124991   0.0000000789   0.5903137493  -0.0000000000  -0.0277958641   0.0000000000
   16  C                  0.0000000557   0.0000000789  -0.0008124991  -0.0000000000   0.5903137493   0.0000000000  -0.0277958641
   17  H                  0.0000004809  -0.0004848460   0.0000000053  -0.0242090171   0.0000000001   0.0018847628  -0.0000000000
   18  H                  0.0000019512   0.0000000053  -0.0004848460   0.0000000001  -0.0242090171  -0.0000000000   0.0018847628
   19  H                 -0.0000016866  -0.0000072903  -0.0000000015  -0.0243001629  -0.0000000000  -0.0047642172  -0.0000000000
   20  H                 -0.0000000081  -0.0000000015  -0.0000072903  -0.0000000000  -0.0243001629  -0.0000000000  -0.0047642172

                              15             16             17             18             19             20
    1  C                  0.0000000679  -0.0236670329  -0.0000002529  -0.0031316547   0.0000000050   0.0011873019
    2  C                 -0.0236670329   0.0000000679  -0.0031316547  -0.0000002529   0.0011873019   0.0000000050
    3  C                  0.0000123482   0.0006304841  -0.0000057177   0.0000099808   0.0000000684  -0.0000139116
    4  C                  0.0006304841   0.0000123482   0.0000099808  -0.0000057177  -0.0000139116   0.0000000684
    5  C                 -0.0035097418  -0.0000060092  -0.0007261699  -0.0000003046   0.0000149017   0.0000000877
    6  C                 -0.0000060092  -0.0035097418  -0.0000003046  -0.0007261699   0.0000000877   0.0000149017
    7  H                  0.0000000557   0.0000277829   0.0000019512   0.0000004809  -0.0000000081  -0.0000016866
    8  H                  0.0000277829   0.0000000557   0.0000004809   0.0000019512  -0.0000016866  -0.0000000081
    9  H                 -0.0008124991   0.0000000789  -0.0004848460   0.0000000053  -0.0000072903  -0.0000000015
   10  H                  0.0000000789  -0.0008124991   0.0000000053  -0.0004848460  -0.0000000015  -0.0000072903
   11  C                  0.5903137493  -0.0000000000  -0.0242090171   0.0000000001  -0.0243001629  -0.0000000000
   12  C                 -0.0000000000   0.5903137493   0.0000000001  -0.0242090171  -0.0000000000  -0.0243001629
   13  H                 -0.0277958641   0.0000000000   0.0018847628  -0.0000000000  -0.0047642172  -0.0000000000
   14  H                  0.0000000000  -0.0277958641  -0.0000000000   0.0018847628  -0.0000000000  -0.0047642172
   15  C                  4.8098543893  -0.0000000000   0.3885033046  -0.0000000000   0.3903378719   0.0000000000
   16  C                 -0.0000000000   4.8098543893  -0.0000000000   0.3885033046   0.0000000000   0.3903378719
   17  H                  0.3885033046  -0.0000000000   0.6026842601  -0.0000000000  -0.0235453150   0.0000000000
   18  H                 -0.0000000000   0.3885033046  -0.0000000000   0.6026842601   0.0000000000  -0.0235453150
   19  H                  0.3903378719   0.0000000000  -0.0235453150   0.0000000000   0.5996347358  -0.0000000000
   20  H                  0.0000000000   0.3903378719   0.0000000000  -0.0235453150  -0.0000000000   0.5996347358

 Total      S,P,D,... shell population
 --------------------------------
    Atom          S        P
 --------------------------------------------------------------------------------------
     1 C      3.13047   2.86772
     2 C      3.13047   2.86772
     3 C      3.14136   2.91829
     4 C      3.14136   2.91829
     5 C      3.13937   2.92108
     6 C      3.13937   2.92108
     7 H      0.94130   0.00000
     8 H      0.94130   0.00000
     9 H      0.93940   0.00000
    10 H      0.93940   0.00000
    11 C      3.14422   2.91102
    12 C      3.14422   2.91102
    13 H      0.94236   0.00000
    14 H      0.94236   0.00000
    15 C      3.15537   2.96852
    16 C      3.15537   2.96852
    17 H      0.94098   0.00000
    18 H      0.94098   0.00000
    19 H      0.93854   0.00000
    20 H      0.93854   0.00000

          ----- Total      gross population on atoms ----

              1  C    6.0     5.99818
              2  C    6.0     5.99818
              3  C    6.0     6.05965
              4  C    6.0     6.05965
              5  C    6.0     6.06045
              6  C    6.0     6.06045
              7  H    1.0     0.94130
              8  H    1.0     0.94130
              9  H    1.0     0.93940
             10  H    1.0     0.93940
             11  C    6.0     6.05524
             12  C    6.0     6.05524
             13  H    1.0     0.94236
             14  H    1.0     0.94236
             15  C    6.0     6.12389
             16  C    6.0     6.12389
             17  H    1.0     0.94098
             18  H    1.0     0.94098
             19  H    1.0     0.93854
             20  H    1.0     0.93854

          ----- Bond indices -----
  1- 1   0.00000  1- 2   0.10626  1- 3   1.38193  1- 4   0.00279  1- 5   0.00275  1- 6   1.38295  1- 7   0.00424  1- 8   0.00578
  2- 1   0.10626  2- 2   0.00000  2- 3   0.00279  2- 4   1.38193  2- 5   1.38295  2- 6   0.00275  2- 7   0.00578  2- 8   0.00424
  3- 1   1.38193  3- 2   0.00279  3- 3   0.00000  3- 4   0.10294  3- 5   1.45716  3- 6   0.00319  3- 7   0.96964  3- 8   0.00013
  4- 1   0.00279  4- 2   1.38193  4- 3   0.10294  4- 4   0.00000  4- 5   0.00319  4- 6   1.45716  4- 7   0.00013  4- 8   0.96964
  5- 1   0.00275  5- 2   1.38295  5- 3   1.45716  5- 4   0.00319  5- 5   0.00000  5- 6   0.10403  5- 7   0.00361  5- 8   0.00552
  6- 1   1.38295  6- 2   0.00275  6- 3   0.00319  6- 4   1.45716  6- 5   0.10403  6- 6   0.00000  6- 7   0.00552  6- 8   0.00361
  7- 1   0.00424  7- 2   0.00578  7- 3   0.96964  7- 4   0.00013  7- 5   0.00361  7- 6   0.00552  7- 7   0.00000  7- 8   0.00004
  8- 1   0.00578  8- 2   0.00424  8- 3   0.00013  8- 4   0.96964  8- 5   0.00552  8- 6   0.00361  8- 7   0.00004  8- 8   0.00000
  9- 1   0.00576  9- 2   0.00399  9- 3   0.00355  9- 4   0.00556  9- 5   0.96856  9- 6   0.00012  9- 7   0.00242  9- 8   0.00090
 10- 1   0.00399 10- 2   0.00576 10- 3   0.00556 10- 4   0.00355 10- 5   0.00012 10- 6   0.96856 10- 7   0.00090 10- 8   0.00242
 11- 1   0.00009 11- 2   1.04125 11- 3   0.00604 11- 4   0.00482 11- 5   0.00419 11- 6   0.00560 11- 7   0.00073 11- 8   0.00219
 12- 1   1.04125 12- 2   0.00009 12- 3   0.00482 12- 4   0.00604 12- 5   0.00560 12- 6   0.00419 12- 7   0.00219 12- 8   0.00073
 13- 1   0.00002 13- 2   0.00530 13- 3   0.00056 13- 4   0.00153 13- 5   0.00486 13- 6   0.00004 13- 7   0.00019 13- 8   0.00103
 14- 1   0.00530 14- 2   0.00002 14- 3   0.00153 14- 4   0.00056 14- 5   0.00004 14- 6   0.00486 14- 7   0.00103 14- 8   0.00019
 15- 1   0.01730 15- 2   0.00290 15- 3   0.00022 15- 4   0.03251 15- 5   0.03040 15- 6   0.00057 15- 7   0.00001 15- 8   0.00006
 16- 1   0.00290 16- 2   0.01730 16- 3   0.03251 16- 4   0.00022 16- 5   0.00057 16- 6   0.03040 16- 7   0.00006 16- 8   0.00001
 17- 1   0.00000 17- 2   0.00360 17- 3   0.00007 17- 4   0.00009 17- 5   0.00012 17- 6   0.00001 17- 7   0.00001 17- 8   0.00001
 18- 1   0.00360 18- 2   0.00000 18- 3   0.00009 18- 4   0.00007 18- 5   0.00001 18- 6   0.00012 18- 7   0.00001 18- 8   0.00001
 19- 1   0.00002 19- 2   0.00807 19- 3   0.00000 19- 4   0.00060 19- 5   0.00028 19- 6   0.00015 19- 7   0.00001 19- 8   0.00004
 20- 1   0.00807 20- 2   0.00002 20- 3   0.00060 20- 4   0.00000 20- 5   0.00015 20- 6   0.00028 20- 7   0.00004 20- 8   0.00001
  1- 9   0.00576  1-10   0.00399  1-11   0.00009  1-12   1.04125  1-13   0.00002  1-14   0.00530  1-15   0.01730  1-16   0.00290
  2- 9   0.00399  2-10   0.00576  2-11   1.04125  2-12   0.00009  2-13   0.00530  2-14   0.00002  2-15   0.00290  2-16   0.01730
  3- 9   0.00355  3-10   0.00556  3-11   0.00604  3-12   0.00482  3-13   0.00056  3-14   0.00153  3-15   0.00022  3-16   0.03251
  4- 9   0.00556  4-10   0.00355  4-11   0.00482  4-12   0.00604  4-13   0.00153  4-14   0.00056  4-15   0.03251  4-16   0.00022
  5- 9   0.96856  5-10   0.00012  5-11   0.00419  5-12   0.00560  5-13   0.00486  5-14   0.00004  5-15   0.03040  5-16   0.00057
  6- 9   0.00012  6-10   0.96856  6-11   0.00560  6-12   0.00419  6-13   0.00004  6-14   0.00486  6-15   0.00057  6-16   0.03040
  7- 9   0.00242  7-10   0.00090  7-11   0.00073  7-12   0.00219  7-13   0.00019  7-14   0.00103  7-15   0.00001  7-16   0.00006
  8- 9   0.00090  8-10   0.00242  8-11   0.00219  8-12   0.00073  8-13   0.00103  8-14   0.00019  8-15   0.00006  8-16   0.00001
  9- 9   0.00000  9-10   0.00005  9-11   0.00246  9-12   0.00071  9-13   0.00006  9-14   0.00002  9-15   0.00014  9-16   0.00011
 10- 9   0.00005 10-10   0.00000 10-11   0.00071 10-12   0.00246 10-13   0.00002 10-14   0.00006 10-15   0.00011 10-16   0.00014
 11- 9   0.00246 11-10   0.00071 11-11   0.00000 11-12   0.00016 11-13   0.96770 11-14   0.00000 11-15   1.93049 11-16   0.00000
 12- 9   0.00071 12-10   0.00246 12-11   0.00016 12-12   0.00000 12-13   0.00000 12-14   0.96770 12-15   0.00000 12-16   1.93049
 13- 9   0.00006 13-10   0.00002 13-11   0.96770 13-12   0.00000 13-13   0.00000 13-14   0.00000 13-15   0.00271 13-16   0.00000
 14- 9   0.00002 14-10   0.00006 14-11   0.00000 14-12   0.96770 14-13   0.00000 14-14   0.00000 14-15   0.00000 14-16   0.00271
 15- 9   0.00014 15-10   0.00011 15-11   1.93049 15-12   0.00000 15-13   0.00271 15-14   0.00000 15-15   0.00000 15-16   0.00361
 16- 9   0.00011 16-10   0.00014 16-11   0.00000 16-12   1.93049 16-13   0.00000 16-14   0.00271 16-15   0.00361 16-16   0.00000
 17- 9   0.00181 17-10   0.00001 17-11   0.00302 17-12   0.00000 17-13   0.00911 17-14  -0.00000 17-15   0.97382 17-16   0.00000
 18- 9   0.00001 18-10   0.00181 18-11   0.00000 18-12   0.00302 18-13  -0.00000 18-14   0.00911 18-15   0.00000 18-16   0.97382
 19- 9   0.00007 19-10   0.00004 19-11   0.00273 19-12   0.00000 19-13   0.00355 19-14   0.00000 19-15   0.97584 19-16   0.00000
 20- 9   0.00004 20-10   0.00007 20-11   0.00000 20-12   0.00273 20-13   0.00000 20-14   0.00355 20-15   0.00000 20-16   0.97584
  1-17   0.00000  1-18   0.00360  1-19   0.00002  1-20   0.00807
  2-17   0.00360  2-18   0.00000  2-19   0.00807  2-20   0.00002
  3-17   0.00007  3-18   0.00009  3-19   0.00000  3-20   0.00060
  4-17   0.00009  4-18   0.00007  4-19   0.00060  4-20   0.00000
  5-17   0.00012  5-18   0.00001  5-19   0.00028  5-20   0.00015
  6-17   0.00001  6-18   0.00012  6-19   0.00015  6-20   0.00028
  7-17   0.00001  7-18   0.00001  7-19   0.00001  7-20   0.00004
  8-17   0.00001  8-18   0.00001  8-19   0.00004  8-20   0.00001
  9-17   0.00181  9-18   0.00001  9-19   0.00007  9-20   0.00004
 10-17   0.00001 10-18   0.00181 10-19   0.00004 10-20   0.00007
 11-17   0.00302 11-18   0.00000 11-19   0.00273 11-20   0.00000
 12-17   0.00000 12-18   0.00302 12-19   0.00000 12-20   0.00273
 13-17   0.00911 13-18  -0.00000 13-19   0.00355 13-20   0.00000
 14-17  -0.00000 14-18   0.00911 14-19   0.00000 14-20   0.00355
 15-17   0.97382 15-18   0.00000 15-19   0.97584 15-20   0.00000
 16-17   0.00000 16-18   0.97382 16-19   0.00000 16-20   0.97584
 17-17   0.00000 17-18   0.00000 17-19   0.00483 17-20  -0.00000
 18-17   0.00000 18-18   0.00000 18-19  -0.00000 18-20   0.00483
 19-17   0.00483 19-18  -0.00000 19-19   0.00000 19-20   0.00000
 20-17  -0.00000 20-18   0.00483 20-19   0.00000 20-20   0.00000

 Large bond indices
 ------------------
  1   C -  2   C    0.10626
  1   C -  3   C    1.38193
  1   C -  6   C    1.38295
  1   C - 12   C    1.04125
  2   C -  4   C    1.38193
  2   C -  5   C    1.38295
  2   C - 11   C    1.04125
  3   C -  4   C    0.10294
  3   C -  5   C    1.45716
  3   C -  7   H    0.96964
  4   C -  6   C    1.45716
  4   C -  8   H    0.96964
  5   C -  6   C    0.10403
  5   C -  9   H    0.96856
  6   C - 10   H    0.96856
 11   C - 13   H    0.96770
 11   C - 15   C    1.93049
 12   C - 14   H    0.96770
 12   C - 16   C    1.93049
 15   C - 17   H    0.97382
 15   C - 19   H    0.97584
 16   C - 18   H    0.97382
 16   C - 20   H    0.97584

                                                                Free electrons             Valency
                              Number of         Sum of          + Bond indices         - Bond indices    
                Valency     Free electrons    Bond indices     =Mulliken charge     = Net spin population
     1  C       3.97498        2.02320          3.97498           5.99818                -0.00000
     2  C       3.97498        2.02320          3.97498           5.99818                 0.00000
     3  C       3.97333        2.08632          3.97333           6.05965                -0.00000
     4  C       3.97333        2.08632          3.97333           6.05965                 0.00000
     5  C       3.97410        2.08635          3.97410           6.06045                -0.00000
     6  C       3.97410        2.08635          3.97410           6.06045                -0.00000
     7  H       0.99655       -0.05526          0.99655           0.94130                 0.00000
     8  H       0.99655       -0.05526          0.99655           0.94130                 0.00000
     9  H       0.99633       -0.05693          0.99633           0.93940                 0.00000
    10  H       0.99633       -0.05693          0.99633           0.93940                 0.00000
    11  C       3.97217        2.08307          3.97217           6.05524                 0.00000
    12  C       3.97217        2.08307          3.97217           6.05524                -0.00000
    13  H       0.99668       -0.05431          0.99668           0.94236                 0.00000
    14  H       0.99668       -0.05431          0.99668           0.94236                -0.00000
    15  C       3.97069        2.15320          3.97069           6.12389                 0.00000
    16  C       3.97069        2.15320          3.97069           6.12389                -0.00000
    17  H       0.99652       -0.05554          0.99652           0.94098                 0.00000
    18  H       0.99652       -0.05554          0.99652           0.94098                -0.00000
    19  H       0.99622       -0.05768          0.99622           0.93854                 0.00000
    20  H       0.99622       -0.05768          0.99622           0.93854                 0.00000

 Task  times  cpu:        2.8s     wall:        2.8s
 Summary of allocated global arrays
-----------------------------------
  No active global arrays



                         GA Statistics for process    0
                         ------------------------------

       create   destroy   get      put      acc     scatter   gather  read&inc
calls:  725      725     7079     4523     3521      420        0        0     
number of processes/call 1.00e+00 1.00e+00 1.00e+00 1.00e+00 0.00e+00
bytes total:             1.01e+07 4.65e+06 1.33e+06 3.09e+04 0.00e+00 0.00e+00
bytes remote:            0.00e+00 0.00e+00 0.00e+00 0.00e+00 0.00e+00 0.00e+00
Max memory consumed for GA by this process: 427200 bytes
MA_summarize_allocated_blocks: starting scan ...
MA_summarize_allocated_blocks: scan completed: 0 heap blocks, 0 stack blocks
MA usage statistics:

	allocation statistics:
					      heap	     stack
					      ----	     -----
	current number of blocks	         0	         0
	maximum number of blocks	        17	        14
	current total bytes		         0	         0
	maximum total bytes		  28335720	  22510712
	maximum total K-bytes		     28336	     22511
	maximum total M-bytes		        29	        23


                                NWChem Input Module
                                -------------------





                                     CITATION
                                     --------
                Please cite the following reference when publishing
                           results obtained with NWChem:

                 M. Valiev, E.J. Bylaska, N. Govind, K. Kowalski,
              T.P. Straatsma, H.J.J. van Dam, D. Wang, J. Nieplocha,
                        E. Apra, T.L. Windus, W.A. de Jong
                 "NWChem: a comprehensive and scalable open-source
                  solution for large scale molecular simulations"
                      Comput. Phys. Commun. 181, 1477 (2010)
                           doi:10.1016/j.cpc.2010.04.018

                              AUTHORS & CONTRIBUTORS
                              ----------------------
      E. J. Bylaska, W. A. de Jong, N. Govind, K. Kowalski, T. P. Straatsma,
     M. Valiev, H. J. J. van Dam, D. Wang, E. Apra, T. L. Windus, J. Hammond,
     J. Autschbach, P. Nichols, S. Hirata, M. T. Hackler, Y. Zhao, P.-D. Fan,
      R. J. Harrison, M. Dupuis, D. M. A. Smith, K. Glaesemann, J. Nieplocha,
      V. Tipparaju, M. Krishnan, A. Vazquez-Mayagoitia, L. Jensen, M. Swart,
      Q. Wu, T. Van Voorhis, A. A. Auer, M. Nooijen, L. D. Crosby, E. Brown,
             G. Cisneros, G. I. Fann, H. Fruchtl, J. Garza, K. Hirao,
        R. Kendall, J. A. Nichols, K. Tsemekhman, K. Wolinski, J. Anchell,
       D. Bernholdt, P. Borowski, T. Clark, D. Clerc, H. Dachsel, M. Deegan,
        K. Dyall, D. Elwood, E. Glendening, M. Gutowski, A. Hess, J. Jaffe,
        B. Johnson, J. Ju, R. Kobayashi, R. Kutteh, Z. Lin, R. Littlefield,
    X. Long, B. Meng, T. Nakajima, S. Niu, L. Pollack, M. Rosing, G. Sandrone,
       M. Stave, H. Taylor, G. Thomas, J. H. van Lenthe, A. Wong, Z. Zhang.

 Total times  cpu:        2.8s     wall:        2.9s
