    nwchem, len=6
dvb_sp_ks.nw, len=12
 argument  1 = dvb_sp_ks.nw
                                         
                                         


              Northwest Computational Chemistry Package (NWChem) 6.0
              ------------------------------------------------------


                    Environmental Molecular Sciences Laboratory
                       Pacific Northwest National Laboratory
                                Richland, WA 99352

                              Copyright (c) 1994-2010
                       Pacific Northwest National Laboratory
                            Battelle Memorial Institute

             NWChem is an open-source computational chemistry package
                        distributed under the terms of the
                      Educational Community License (ECL) 2.0
             A copy of the license is included with this distribution
                              in the LICENSE.TXT file

                                  ACKNOWLEDGMENT
                                  --------------

            This software and its documentation were developed at the
            EMSL at Pacific Northwest National Laboratory, a multiprogram
            national laboratory, operated for the U.S. Department of Energy
            by Battelle under Contract Number DE-AC05-76RL01830. Support
            for this work was provided by the Department of Energy Office
            of Biological and Environmental Research, Office of Basic
            Energy Sciences, and the Office of Advanced Scientific Computing.


           Job information
           ---------------

    hostname      = helena
    program       = nwchem
    date          = Thu Feb  6 15:25:01 2014

    compiled      = Thu_May_05_12:06:54_2011
    source        = /build/buildd/nwchem-6.0
    nwchem branch = 6.0
    input         = dvb_sp_ks.nw
    prefix        = dvb.
    data base     = ./dvb.db
    status        = startup
    nproc         =        1
    time left     =     -1s



           Memory information
           ------------------

    heap     =   13107201 doubles =    100.0 Mbytes
    stack    =   13107201 doubles =    100.0 Mbytes
    global   =   26214400 doubles =    200.0 Mbytes (distinct from heap & stack)
    total    =   52428802 doubles =    400.0 Mbytes
    verify   = yes
    hardfail = no 


           Directory information
           ---------------------

  0 permanent = .
  0 scratch   = .




                                NWChem Input Module
                                -------------------


                        Divinylbenzene in STO-3G basis set
                        ----------------------------------

 Scaling coordinates for geometry "geometry" by  1.889725989
 (inverse scale =  0.529177249)

 Turning off AUTOSYM since
 SYMMETRY directive was detected!


          ------
          auto-z
          ------


                             Geometry "geometry" -> ""
                             -------------------------

 Output coordinates in angstroms (scale by  1.889725989 to convert to a.u.)

  No.       Tag          Charge          X              Y              Z
 ---- ---------------- ---------- -------------- -------------- --------------
    1 C                    6.0000    -1.41525332     0.23022179     0.00000000
    2 C                    6.0000     1.41525332    -0.23022179     0.00000000
    3 C                    6.0000    -0.49513316     1.31446087     0.00000000
    4 C                    6.0000     0.49513316    -1.31446087     0.00000000
    5 C                    6.0000     0.88940904     1.09094937     0.00000000
    6 C                    6.0000    -0.88940904    -1.09094937     0.00000000
    7 H                    1.0000    -0.87955120     2.34373437     0.00000000
    8 H                    1.0000     0.87955120    -2.34373437     0.00000000
    9 H                    1.0000     1.57790416     1.94500613     0.00000000
   10 H                    1.0000    -1.57790416    -1.94500613     0.00000000
   11 C                    6.0000     2.88458450    -0.52108938     0.00000000
   12 C                    6.0000    -2.88458450     0.52108938     0.00000000
   13 H                    1.0000     3.14033568    -1.59196057     0.00000000
   14 H                    1.0000    -3.14033568     1.59196057     0.00000000
   15 C                    6.0000     3.88004281     0.38225354     0.00000000
   16 C                    6.0000    -3.88004281    -0.38225354     0.00000000
   17 H                    1.0000     3.69467659     1.46243896     0.00000000
   18 H                    1.0000    -3.69467659    -1.46243896     0.00000000
   19 H                    1.0000     4.93164535     0.07110495     0.00000000
   20 H                    1.0000    -4.93164535    -0.07110495     0.00000000

      Atomic Mass 
      ----------- 

      C                 12.000000
      H                  1.007825


 Effective nuclear repulsion energy (a.u.)     445.9370121674

            Nuclear Dipole moment (a.u.) 
            ----------------------------
        X                 Y               Z
 ---------------- ---------------- ----------------
     0.0000000000     0.0000000000     0.0000000000



                                Z-matrix (autoz)
                                -------- 

 Units are Angstrom for bonds and degrees for angles

      Type          Name      I     J     K     L     M      Value
      ----------- --------  ----- ----- ----- ----- ----- ----------
    1 Stretch                  1     3                       1.42204
    2 Stretch                  1     6                       1.42197
    3 Stretch                  1    12                       1.49784
    4 Stretch                  2     4                       1.42204
    5 Stretch                  2     5                       1.42197
    6 Stretch                  2    11                       1.49784
    7 Stretch                  3     5                       1.40247
    8 Stretch                  3     7                       1.09872
    9 Stretch                  4     6                       1.40247
   10 Stretch                  4     8                       1.09872
   11 Stretch                  5     9                       1.09701
   12 Stretch                  6    10                       1.09701
   13 Stretch                 11    13                       1.10099
   14 Stretch                 11    15                       1.34423
   15 Stretch                 12    14                       1.10099
   16 Stretch                 12    16                       1.34423
   17 Stretch                 15    17                       1.09597
   18 Stretch                 15    19                       1.09667
   19 Stretch                 16    18                       1.09597
   20 Stretch                 16    20                       1.09667
   21 Bend                     1     3     5               121.14867
   22 Bend                     1     3     7               119.20109
   23 Bend                     1     6     4               120.87358
   24 Bend                     1     6    10               119.42285
   25 Bend                     1    12    14               114.62953
   26 Bend                     1    12    16               126.57992
   27 Bend                     2     4     6               121.14867
   28 Bend                     2     4     8               119.20109
   29 Bend                     2     5     3               120.87358
   30 Bend                     2     5     9               119.42285
   31 Bend                     2    11    13               114.62953
   32 Bend                     2    11    15               126.57992
   33 Bend                     3     1     6               117.97776
   34 Bend                     3     1    12               119.12155
   35 Bend                     3     5     9               119.70357
   36 Bend                     4     2     5               117.97776
   37 Bend                     4     2    11               119.12155
   38 Bend                     4     6    10               119.70357
   39 Bend                     5     2    11               122.90069
   40 Bend                     5     3     7               119.65024
   41 Bend                     6     1    12               122.90069
   42 Bend                     6     4     8               119.65024
   43 Bend                    11    15    17               122.48517
   44 Bend                    11    15    19               121.29492
   45 Bend                    12    16    18               122.48517
   46 Bend                    12    16    20               121.29492
   47 Bend                    13    11    15               118.79054
   48 Bend                    14    12    16               118.79054
   49 Bend                    17    15    19               116.21990
   50 Bend                    18    16    20               116.21990
   51 Torsion                  1     3     5     2           0.00000
   52 Torsion                  1     3     5     9         180.00000
   53 Torsion                  1     6     4     2           0.00000
   54 Torsion                  1     6     4     8         180.00000
   55 Torsion                  1    12    16    18           0.00000
   56 Torsion                  1    12    16    20         180.00000
   57 Torsion                  2     4     6    10         180.00000
   58 Torsion                  2     5     3     7         180.00000
   59 Torsion                  2    11    15    17           0.00000
   60 Torsion                  2    11    15    19         180.00000
   61 Torsion                  3     1     6     4           0.00000
   62 Torsion                  3     1     6    10         180.00000
   63 Torsion                  3     1    12    14          -0.00000
   64 Torsion                  3     1    12    16         180.00000
   65 Torsion                  3     5     2     4          -0.00000
   66 Torsion                  3     5     2    11         180.00000
   67 Torsion                  4     2     5     9         180.00000
   68 Torsion                  4     2    11    13           0.00000
   69 Torsion                  4     2    11    15         180.00000
   70 Torsion                  4     6     1    12         180.00000
   71 Torsion                  5     2     4     6           0.00000
   72 Torsion                  5     2     4     8         180.00000
   73 Torsion                  5     2    11    13         180.00000
   74 Torsion                  5     2    11    15           0.00000
   75 Torsion                  5     3     1     6           0.00000
   76 Torsion                  5     3     1    12         180.00000
   77 Torsion                  6     1     3     7         180.00000
   78 Torsion                  6     1    12    14         180.00000
   79 Torsion                  6     1    12    16           0.00000
   80 Torsion                  6     4     2    11         180.00000
   81 Torsion                  7     3     1    12           0.00000
   82 Torsion                  7     3     5     9           0.00000
   83 Torsion                  8     4     2    11           0.00000
   84 Torsion                  8     4     6    10           0.00000
   85 Torsion                  9     5     2    11           0.00000
   86 Torsion                 10     6     1    12           0.00000
   87 Torsion                 13    11    15    17         180.00000
   88 Torsion                 13    11    15    19           0.00000
   89 Torsion                 14    12    16    18         180.00000
   90 Torsion                 14    12    16    20           0.00000


            XYZ format geometry
            -------------------
    20
 geometry
 C                    -1.41525332     0.23022179     0.00000000
 C                     1.41525332    -0.23022179     0.00000000
 C                    -0.49513316     1.31446087     0.00000000
 C                     0.49513316    -1.31446087     0.00000000
 C                     0.88940904     1.09094937     0.00000000
 C                    -0.88940904    -1.09094937     0.00000000
 H                    -0.87955120     2.34373437     0.00000000
 H                     0.87955120    -2.34373437     0.00000000
 H                     1.57790416     1.94500613     0.00000000
 H                    -1.57790416    -1.94500613     0.00000000
 C                     2.88458450    -0.52108938     0.00000000
 C                    -2.88458450     0.52108938     0.00000000
 H                     3.14033568    -1.59196057     0.00000000
 H                    -3.14033568     1.59196057     0.00000000
 C                     3.88004281     0.38225354     0.00000000
 C                    -3.88004281    -0.38225354     0.00000000
 H                     3.69467659     1.46243896     0.00000000
 H                    -3.69467659    -1.46243896     0.00000000
 H                     4.93164535     0.07110495     0.00000000
 H                    -4.93164535    -0.07110495     0.00000000

 ==============================================================================
                                internuclear distances
 ------------------------------------------------------------------------------
       center one      |      center two      | atomic units |  angstroms
 ------------------------------------------------------------------------------
    3 C                |   1 C                |     2.68726  |     1.42204
    4 C                |   2 C                |     2.68726  |     1.42204
    5 C                |   2 C                |     2.68714  |     1.42197
    5 C                |   3 C                |     2.65028  |     1.40247
    6 C                |   1 C                |     2.68714  |     1.42197
    6 C                |   4 C                |     2.65028  |     1.40247
    7 H                |   3 C                |     2.07628  |     1.09872
    8 H                |   4 C                |     2.07628  |     1.09872
    9 H                |   5 C                |     2.07305  |     1.09701
   10 H                |   6 C                |     2.07305  |     1.09701
   11 C                |   2 C                |     2.83052  |     1.49784
   12 C                |   1 C                |     2.83052  |     1.49784
   13 H                |  11 C                |     2.08056  |     1.10099
   14 H                |  12 C                |     2.08056  |     1.10099
   15 C                |  11 C                |     2.54023  |     1.34423
   16 C                |  12 C                |     2.54023  |     1.34423
   17 H                |  15 C                |     2.07109  |     1.09597
   18 H                |  16 C                |     2.07109  |     1.09597
   19 H                |  15 C                |     2.07240  |     1.09667
   20 H                |  16 C                |     2.07240  |     1.09667
 ------------------------------------------------------------------------------
                         number of included internuclear distances:         20
 ==============================================================================



 ==============================================================================
                                 internuclear angles
 ------------------------------------------------------------------------------
        center 1       |       center 2       |       center 3       |  degrees
 ------------------------------------------------------------------------------
    3 C                |   1 C                |   6 C                |   117.98
    3 C                |   1 C                |  12 C                |   119.12
    6 C                |   1 C                |  12 C                |   122.90
    4 C                |   2 C                |   5 C                |   117.98
    4 C                |   2 C                |  11 C                |   119.12
    5 C                |   2 C                |  11 C                |   122.90
    1 C                |   3 C                |   5 C                |   121.15
    1 C                |   3 C                |   7 H                |   119.20
    5 C                |   3 C                |   7 H                |   119.65
    2 C                |   4 C                |   6 C                |   121.15
    2 C                |   4 C                |   8 H                |   119.20
    6 C                |   4 C                |   8 H                |   119.65
    2 C                |   5 C                |   3 C                |   120.87
    2 C                |   5 C                |   9 H                |   119.42
    3 C                |   5 C                |   9 H                |   119.70
    1 C                |   6 C                |   4 C                |   120.87
    1 C                |   6 C                |  10 H                |   119.42
    4 C                |   6 C                |  10 H                |   119.70
    2 C                |  11 C                |  13 H                |   114.63
    2 C                |  11 C                |  15 C                |   126.58
   13 H                |  11 C                |  15 C                |   118.79
    1 C                |  12 C                |  14 H                |   114.63
    1 C                |  12 C                |  16 C                |   126.58
   14 H                |  12 C                |  16 C                |   118.79
   11 C                |  15 C                |  17 H                |   122.49
   11 C                |  15 C                |  19 H                |   121.29
   17 H                |  15 C                |  19 H                |   116.22
   12 C                |  16 C                |  18 H                |   122.49
   12 C                |  16 C                |  20 H                |   121.29
   18 H                |  16 C                |  20 H                |   116.22
 ------------------------------------------------------------------------------
                            number of included internuclear angles:         30
 ==============================================================================





 Summary of "ao basis" -> "" (cartesian)
 ------------------------------------------------------------------------------
       Tag                 Description            Shells   Functions and Types
 ---------------- ------------------------------  ------  ---------------------
 *                           sto-3g                   on all atoms 



                                 NWChem DFT Module
                                 -----------------


                        Divinylbenzene in STO-3G basis set


                      Basis "ao basis" -> "ao basis" (cartesian)
                      -----
  C (Carbon)
  ----------
            Exponent  Coefficients 
       -------------- ---------------------------------------------------------
  1 S  7.16168370E+01  0.154329
  1 S  1.30450960E+01  0.535328
  1 S  3.53051220E+00  0.444635

  2 S  2.94124940E+00 -0.099967
  2 S  6.83483100E-01  0.399513
  2 S  2.22289900E-01  0.700115

  3 P  2.94124940E+00  0.155916
  3 P  6.83483100E-01  0.607684
  3 P  2.22289900E-01  0.391957

  H (Hydrogen)
  ------------
            Exponent  Coefficients 
       -------------- ---------------------------------------------------------
  1 S  3.42525091E+00  0.154329
  1 S  6.23913730E-01  0.535328
  1 S  1.68855400E-01  0.444635



 Summary of "ao basis" -> "ao basis" (cartesian)
 ------------------------------------------------------------------------------
       Tag                 Description            Shells   Functions and Types
 ---------------- ------------------------------  ------  ---------------------
 C                           sto-3g                  3        5   2s1p
 H                           sto-3g                  1        1   1s


  Caching 1-el integrals 

            General Information
            -------------------
          SCF calculation type: DFT
          Wavefunction type:  closed shell.
          No. of atoms     :    20
          No. of electrons :    70
           Alpha electrons :    35
            Beta electrons :    35
          Charge           :     0
          Spin multiplicity:     1
          Use of symmetry is: off; symmetry adaption is: off
          Maximum number of iterations:  30
          AO basis - number of functions:    60
                     number of shells:    40
          Convergence on energy requested: 1.00D-06
          Convergence on density requested: 1.00D-05
          Convergence on gradient requested: 5.00D-04

              XC Information
              --------------
                        Slater Exchange Functional  1.000 local    
                      VWN V Correlation Functional  1.000 local    

             Grid Information
             ----------------
          Grid used for XC integration:  medium    
          Radial quadrature: Mura-Knowles        
          Angular quadrature: Lebedev. 
          Tag              B.-S. Rad. Rad. Pts. Rad. Cut. Ang. Pts.
          ---              ---------- --------- --------- ---------
          C                   0.70       49          12.0       434
          H                   0.35       45          12.0       434
          Grid pruning is: on 
          Number of quadrature shells:   940
          Spatial weights used:  Erf1

          Convergence Information
          -----------------------
          Convergence aids based upon iterative change in 
          total energy or number of iterations. 
          Levelshifting, if invoked, occurs when the 
          HOMO/LUMO gap drops below (HL_TOL): 1.00D-02
          DIIS, if invoked, will attempt to extrapolate 
          using up to (NFOCK): 10 stored Fock matrices.

                    Damping( 0%)  Levelshifting(0.5)       DIIS
                  --------------- ------------------- ---------------
          dE  on:    start            ASAP                start   
          dE off:    2 iters         30 iters            30 iters 


      Screening Tolerance Information
      -------------------------------
          Density screening/tol_rho: 1.00D-10
          AO Gaussian exp screening on grid/accAOfunc:  14
          CD Gaussian exp screening on grid/accCDfunc:  20
          XC Gaussian exp screening on grid/accXCfunc:  20
          Schwarz screening/accCoul: 1.00D-08


      Superposition of Atomic Density Guess
      -------------------------------------

 Sum of atomic energies:        -376.44825176

      Non-variational initial energy
      ------------------------------

 Total energy =    -379.429467
 1-e energy   =   -1401.451096
 2-e energy   =     576.084617
 HOMO         =      -0.037644
 LUMO         =       0.163723

   Time after variat. SCF:      0.9
   Time prior to 1st pass:      0.9

 Integral file          = ./dvb.aoints.0
 Record size in doubles =  65536        No. of integs per rec  =  43688
 Max. records in memory =     54        Max. records in file   =  50921
 No. of bits per label  =      8        No. of bits per value  =     64


 #quartets = 2.152D+05 #integrals = 6.689D+05 #direct =  0.0% #cached =100.0%


 Grid_pts file          = ./dvb.gridpts.0
 Record size in doubles =  12289        No. of grid_pts per rec  =   3070
 Max. records in memory =    148        Max. recs in file   =    271561


           Memory utilization after 1st SCF pass: 
           Heap Space remaining (MW):        7.75             7746062
          Stack Space remaining (MW):       13.11            13106305

   convergence    iter        energy       DeltaE   RMS-Dens  Diis-err    time
 ---------------- ----- ----------------- --------- --------- ---------  ------
 d= 0,ls=0.0,diis     1   -378.6629649768 -8.25D+02  1.78D-02  7.92D-01     6.9
 d= 0,ls=0.0,diis     2   -378.7204164875 -5.75D-02  1.32D-02  9.94D-02     8.5
 d= 0,ls=0.0,diis     3   -378.6844645960  3.60D-02  9.17D-03  3.16D-01    10.0
 d= 0,ls=0.0,diis     4   -378.7365935021 -5.21D-02  1.62D-03  9.98D-03    11.6
 d= 0,ls=0.0,diis     5   -378.7381814822 -1.59D-03  2.68D-04  3.17D-04    13.2
 d= 0,ls=0.0,diis     6   -378.7382280352 -4.66D-05  4.85D-05  4.03D-06    14.8
 d= 0,ls=0.0,diis     7   -378.7382285914 -5.56D-07  1.82D-05  1.07D-06    16.3
 d= 0,ls=0.0,diis     8   -378.7382287773 -1.86D-07  2.51D-06  1.43D-08    18.0


         Total DFT energy =     -378.738228777328
      One electron energy =    -1401.196223641946
           Coulomb energy =      630.775891944782
    Exchange-Corr. energy =      -54.254909247609
 Nuclear repulsion energy =      445.937012167446

 Numeric. integr. density =       69.999955919616

     Total iterative time =     17.1s



                       DFT Final Molecular Orbital Analysis
                       ------------------------------------

 Vector    1  Occ=2.000000D+00  E=-9.608682D+00
              MO Center= -3.0D-04,  5.0D-05, -1.6D-13, r^2= 2.1D+00
   Bfn.  Coefficient  Atom+Function         Bfn.  Coefficient  Atom+Function  
  ----- ------------  ---------------      ----- ------------  ---------------
     1     -0.696957   1 C  s                 6      0.696807   2 C  s         

 Vector    2  Occ=2.000000D+00  E=-9.608623D+00
              MO Center=  3.0D-04, -5.0D-05, -1.7D-13, r^2= 2.1D+00
   Bfn.  Coefficient  Atom+Function         Bfn.  Coefficient  Atom+Function  
  ----- ------------  ---------------      ----- ------------  ---------------
     6     -0.697106   2 C  s                 1     -0.696956   1 C  s         

 Vector    3  Occ=2.000000D+00  E=-9.593414D+00
              MO Center=  7.8D-05,  3.1D-04, -1.5D-13, r^2= 2.0D+00
   Bfn.  Coefficient  Atom+Function         Bfn.  Coefficient  Atom+Function  
  ----- ------------  ---------------      ----- ------------  ---------------
    21     -0.526433   5 C  s                26     -0.526293   6 C  s         
    11      0.459336   3 C  s                16      0.459221   4 C  s         

 Vector    4  Occ=2.000000D+00  E=-9.593391D+00
              MO Center= -6.7D-05, -3.1D-04, -9.8D-14, r^2= 2.3D+00
   Bfn.  Coefficient  Atom+Function         Bfn.  Coefficient  Atom+Function  
  ----- ------------  ---------------      ----- ------------  ---------------
    26     -0.518352   6 C  s                21      0.518215   5 C  s         
    16      0.442530   4 C  s                11     -0.442407   3 C  s         
    35     -0.150009  11 C  s                40      0.150001  12 C  s         

 Vector    5  Occ=2.000000D+00  E=-9.593197D+00
              MO Center=  1.2D-03, -2.3D-04,  3.0D-13, r^2= 8.6D+00
   Bfn.  Coefficient  Atom+Function         Bfn.  Coefficient  Atom+Function  
  ----- ------------  ---------------      ----- ------------  ---------------
    35      0.696977  11 C  s                40      0.696674  12 C  s         

 Vector    6  Occ=2.000000D+00  E=-9.593186D+00
              MO Center= -1.2D-03,  2.3D-04,  2.7D-13, r^2= 8.3D+00
   Bfn.  Coefficient  Atom+Function         Bfn.  Coefficient  Atom+Function  
  ----- ------------  ---------------      ----- ------------  ---------------
    40     -0.681982  12 C  s                35      0.681672  11 C  s         

 Vector    7  Occ=2.000000D+00  E=-9.592164D+00
              MO Center= -8.1D-07,  2.9D-05, -7.8D-15, r^2= 2.0D+00
   Bfn.  Coefficient  Atom+Function         Bfn.  Coefficient  Atom+Function  
  ----- ------------  ---------------      ----- ------------  ---------------
    11     -0.533014   3 C  s                16      0.533000   4 C  s         
    21     -0.453472   5 C  s                26      0.453463   6 C  s         

 Vector    8  Occ=2.000000D+00  E=-9.591963D+00
              MO Center= -4.8D-06, -2.8D-05, -3.8D-15, r^2= 2.0D+00
   Bfn.  Coefficient  Atom+Function         Bfn.  Coefficient  Atom+Function  
  ----- ------------  ---------------      ----- ------------  ---------------
    16      0.525855   4 C  s                11      0.525844   3 C  s         
    26      0.458032   6 C  s                21      0.458019   5 C  s         

 Vector    9  Occ=2.000000D+00  E=-9.575290D+00
              MO Center= -1.8D+00, -1.7D-01,  1.1D-13, r^2= 1.2D+01
   Bfn.  Coefficient  Atom+Function         Bfn.  Coefficient  Atom+Function  
  ----- ------------  ---------------      ----- ------------  ---------------
    52      0.842868  16 C  s                47     -0.516671  15 C  s         

 Vector   10  Occ=2.000000D+00  E=-9.575290D+00
              MO Center=  1.8D+00,  1.7D-01,  4.3D-14, r^2= 1.2D+01
   Bfn.  Coefficient  Atom+Function         Bfn.  Coefficient  Atom+Function  
  ----- ------------  ---------------      ----- ------------  ---------------
    47     -0.842867  15 C  s                52     -0.516670  16 C  s         

 Vector   11  Occ=2.000000D+00  E=-7.235762D-01
              MO Center= -5.1D-08,  2.8D-08,  4.1D-11, r^2= 2.9D+00
   Bfn.  Coefficient  Atom+Function         Bfn.  Coefficient  Atom+Function  
  ----- ------------  ---------------      ----- ------------  ---------------
     2     -0.273873   1 C  s                 7     -0.273873   2 C  s         
    12     -0.246406   3 C  s                17     -0.246406   4 C  s         
    22     -0.245842   5 C  s                27     -0.245842   6 C  s         

 Vector   12  Occ=2.000000D+00  E=-6.702588D-01
              MO Center= -1.3D-07, -7.5D-10, -5.1D-11, r^2= 7.7D+00
   Bfn.  Coefficient  Atom+Function         Bfn.  Coefficient  Atom+Function  
  ----- ------------  ---------------      ----- ------------  ---------------
    41      0.294737  12 C  s                36     -0.294737  11 C  s         
     7     -0.275724   2 C  s                 2      0.275724   1 C  s         
    53      0.204568  16 C  s                48     -0.204568  15 C  s         

 Vector   13  Occ=2.000000D+00  E=-6.358186D-01
              MO Center= -1.9D-08,  1.1D-08, -7.5D-11, r^2= 1.1D+01
   Bfn.  Coefficient  Atom+Function         Bfn.  Coefficient  Atom+Function  
  ----- ------------  ---------------      ----- ------------  ---------------
    36     -0.314925  11 C  s                41     -0.314925  12 C  s         
    53     -0.307036  16 C  s                48     -0.307036  15 C  s         

 Vector   14  Occ=2.000000D+00  E=-6.195137D-01
              MO Center=  2.8D-08, -4.4D-08, -3.5D-11, r^2= 3.2D+00
   Bfn.  Coefficient  Atom+Function         Bfn.  Coefficient  Atom+Function  
  ----- ------------  ---------------      ----- ------------  ---------------
    17      0.355704   4 C  s                12     -0.355704   3 C  s         
    27      0.320515   6 C  s                22     -0.320515   5 C  s         

 Vector   15  Occ=2.000000D+00  E=-5.881749D-01
              MO Center=  8.7D-08,  1.1D-08,  7.6D-11, r^2= 9.3D+00
   Bfn.  Coefficient  Atom+Function         Bfn.  Coefficient  Atom+Function  
  ----- ------------  ---------------      ----- ------------  ---------------
    48     -0.302384  15 C  s                53      0.302384  16 C  s         
     2     -0.268064   1 C  s                 7      0.268064   2 C  s         
    22      0.203202   5 C  s                27     -0.203202   6 C  s         

 Vector   16  Occ=2.000000D+00  E=-5.191473D-01
              MO Center= -3.0D-08, -1.4D-08,  5.1D-11, r^2= 8.2D+00
   Bfn.  Coefficient  Atom+Function         Bfn.  Coefficient  Atom+Function  
  ----- ------------  ---------------      ----- ------------  ---------------
    48     -0.236712  15 C  s                53     -0.236712  16 C  s         
    27     -0.236239   6 C  s                22     -0.236239   5 C  s         
     7      0.197676   2 C  s                 2      0.197676   1 C  s         
    18      0.165257   4 C  px               13     -0.165257   3 C  px        
    41      0.153796  12 C  s                36      0.153796  11 C  s         

 Vector   17  Occ=2.000000D+00  E=-4.916627D-01
              MO Center= -3.2D-08,  2.4D-08,  6.5D-11, r^2= 5.3D+00
   Bfn.  Coefficient  Atom+Function         Bfn.  Coefficient  Atom+Function  
  ----- ------------  ---------------      ----- ------------  ---------------
    12     -0.320259   3 C  s                17     -0.320259   4 C  s         
     9      0.182460   2 C  py                4     -0.182460   1 C  py        
    23      0.174061   5 C  px               28     -0.174061   6 C  px        
     7      0.169597   2 C  s                 2      0.169597   1 C  s         
    31     -0.164257   7 H  s                32     -0.164257   8 H  s         

 Vector   18  Occ=2.000000D+00  E=-4.638526D-01
              MO Center= -1.7D-07, -4.9D-09, -6.4D-11, r^2= 1.2D+01
   Bfn.  Coefficient  Atom+Function         Bfn.  Coefficient  Atom+Function  
  ----- ------------  ---------------      ----- ------------  ---------------
    41      0.300974  12 C  s                36     -0.300974  11 C  s         
    53     -0.246992  16 C  s                48      0.246992  15 C  s         
    46      0.168315  14 H  s                45     -0.168315  13 H  s         
    58     -0.158788  18 H  s                57      0.158788  17 H  s         
    17      0.157041   4 C  s                12     -0.157041   3 C  s         

 Vector   19  Occ=2.000000D+00  E=-4.476917D-01
              MO Center=  2.1D-07,  9.9D-09, -6.6D-11, r^2= 7.2D+00
   Bfn.  Coefficient  Atom+Function         Bfn.  Coefficient  Atom+Function  
  ----- ------------  ---------------      ----- ------------  ---------------
    24     -0.209792   5 C  py               29      0.209792   6 C  py        
    14     -0.196526   3 C  py               19      0.196526   4 C  py        
    34     -0.170852  10 H  s                33     -0.170852   9 H  s         
    27     -0.169345   6 C  s                22     -0.169345   5 C  s         
    36     -0.166635  11 C  s                41     -0.166635  12 C  s         

 Vector   20  Occ=2.000000D+00  E=-4.002099D-01
              MO Center= -4.8D-08, -1.3D-08,  1.7D-11, r^2= 1.0D+01
   Bfn.  Coefficient  Atom+Function         Bfn.  Coefficient  Atom+Function  
  ----- ------------  ---------------      ----- ------------  ---------------
    55     -0.223079  16 C  py               50      0.223079  15 C  py        
    42      0.186195  12 C  px               37     -0.186195  11 C  px        
    58      0.181603  18 H  s                57      0.181603  17 H  s         
    45     -0.156284  13 H  s                46     -0.156284  14 H  s         

 Vector   21  Occ=2.000000D+00  E=-3.832404D-01
              MO Center= -9.5D-08, -8.6D-09, -2.9D-12, r^2= 1.0D+01
   Bfn.  Coefficient  Atom+Function         Bfn.  Coefficient  Atom+Function  
  ----- ------------  ---------------      ----- ------------  ---------------
    43      0.220127  12 C  py               38      0.220127  11 C  py        
    54     -0.218842  16 C  px               49     -0.218842  15 C  px        
    13     -0.193945   3 C  px               18     -0.193945   4 C  px        
    60      0.176526  20 H  s                59     -0.176526  19 H  s         

 Vector   22  Occ=2.000000D+00  E=-3.523059D-01
              MO Center= -1.2D-07,  9.2D-08,  2.5D-11, r^2= 6.8D+00
   Bfn.  Coefficient  Atom+Function         Bfn.  Coefficient  Atom+Function  
  ----- ------------  ---------------      ----- ------------  ---------------
     2      0.226913   1 C  s                 7     -0.226913   2 C  s         
    14     -0.225079   3 C  py               19     -0.225079   4 C  py        
    31     -0.222768   7 H  s                32      0.222768   8 H  s         
    33      0.210431   9 H  s                34     -0.210431  10 H  s         
    23      0.180643   5 C  px               28      0.180643   6 C  px        

 Vector   23  Occ=2.000000D+00  E=-3.437218D-01
              MO Center= -1.4D-07, -2.1D-08,  8.5D-12, r^2= 8.3D+00
   Bfn.  Coefficient  Atom+Function         Bfn.  Coefficient  Atom+Function  
  ----- ------------  ---------------      ----- ------------  ---------------
    24      0.266860   5 C  py               29      0.266860   6 C  py        
    55      0.236559  16 C  py               50      0.236559  15 C  py        
     9     -0.206051   2 C  py                4     -0.206051   1 C  py        
    58     -0.198928  18 H  s                57      0.198928  17 H  s         
    37     -0.166895  11 C  px               42     -0.166895  12 C  px        

 Vector   24  Occ=2.000000D+00  E=-3.397328D-01
              MO Center=  2.3D-07, -8.8D-08, -3.0D-11, r^2= 1.4D+01
   Bfn.  Coefficient  Atom+Function         Bfn.  Coefficient  Atom+Function  
  ----- ------------  ---------------      ----- ------------  ---------------
    49      0.342899  15 C  px               54     -0.342899  16 C  px        
    38     -0.255235  11 C  py               43      0.255235  12 C  py        
    59      0.254807  19 H  s                60      0.254807  20 H  s         

 Vector   25  Occ=2.000000D+00  E=-3.200448D-01
              MO Center= -1.3D-08, -4.0D-08,  5.9D-12, r^2= 4.3D+00
   Bfn.  Coefficient  Atom+Function         Bfn.  Coefficient  Atom+Function  
  ----- ------------  ---------------      ----- ------------  ---------------
    19      0.315476   4 C  py               14      0.315476   3 C  py        
    32     -0.243845   8 H  s                31      0.243845   7 H  s         
    28      0.220365   6 C  px               23      0.220365   5 C  px        
    34     -0.211343  10 H  s                33      0.211343   9 H  s         
    29      0.197787   6 C  py               24      0.197787   5 C  py        

 Vector   26  Occ=2.000000D+00  E=-2.983802D-01
              MO Center=  2.1D-08,  6.7D-08, -1.4D-11, r^2= 9.2D+00
   Bfn.  Coefficient  Atom+Function         Bfn.  Coefficient  Atom+Function  
  ----- ------------  ---------------      ----- ------------  ---------------
    49     -0.256103  15 C  px               54     -0.256103  16 C  px        
    13      0.222275   3 C  px               18      0.222275   4 C  px        
    38      0.206379  11 C  py               43      0.206379  12 C  py        
    23     -0.197562   5 C  px               28     -0.197562   6 C  px        
    42      0.187520  12 C  px               37      0.187520  11 C  px        

 Vector   27  Occ=2.000000D+00  E=-2.923273D-01
              MO Center= -5.1D-10,  3.1D-08, -1.5D-11, r^2= 1.2D+01
   Bfn.  Coefficient  Atom+Function         Bfn.  Coefficient  Atom+Function  
  ----- ------------  ---------------      ----- ------------  ---------------
    50     -0.295134  15 C  py               55      0.295134  16 C  py        
    57     -0.257943  17 H  s                58     -0.257943  18 H  s         
    43     -0.207675  12 C  py               38      0.207675  11 C  py        
    46     -0.192946  14 H  s                45     -0.192946  13 H  s         
    31      0.158167   7 H  s                32      0.158167   8 H  s         

 Vector   28  Occ=2.000000D+00  E=-2.794153D-01
              MO Center= -5.6D-08,  2.6D-08,  1.2D-10, r^2= 3.6D+00
   Bfn.  Coefficient  Atom+Function         Bfn.  Coefficient  Atom+Function  
  ----- ------------  ---------------      ----- ------------  ---------------
     5      0.340720   1 C  pz               10      0.340720   2 C  pz        
    15      0.296460   3 C  pz               20      0.296460   4 C  pz        
    25      0.295610   5 C  pz               30      0.295610   6 C  pz        
    44      0.175352  12 C  pz               39      0.175352  11 C  pz        

 Vector   29  Occ=2.000000D+00  E=-2.588512D-01
              MO Center= -7.7D-08,  2.7D-08, -7.1D-12, r^2= 1.2D+01
   Bfn.  Coefficient  Atom+Function         Bfn.  Coefficient  Atom+Function  
  ----- ------------  ---------------      ----- ------------  ---------------
    46      0.258030  14 H  s                45     -0.258030  13 H  s         
     3      0.236378   1 C  px                8      0.236378   2 C  px        
    57     -0.234308  17 H  s                58      0.234308  18 H  s         
    43      0.223112  12 C  py               38      0.223112  11 C  py        
    50     -0.211110  15 C  py               55     -0.211110  16 C  py        

 Vector   30  Occ=2.000000D+00  E=-2.443249D-01
              MO Center=  2.6D-07, -6.5D-08, -1.4D-11, r^2= 6.5D+00
   Bfn.  Coefficient  Atom+Function         Bfn.  Coefficient  Atom+Function  
  ----- ------------  ---------------      ----- ------------  ---------------
    18      0.279726   4 C  px               13     -0.279726   3 C  px        
     8     -0.271673   2 C  px                3      0.271673   1 C  px        
    37      0.255564  11 C  px               42     -0.255564  12 C  px        
    28     -0.240789   6 C  px               23      0.240789   5 C  px        
    34      0.225376  10 H  s                33      0.225376   9 H  s         

 Vector   31  Occ=2.000000D+00  E=-2.373585D-01
              MO Center=  8.6D-08, -2.0D-09, -2.0D-11, r^2= 6.1D+00
   Bfn.  Coefficient  Atom+Function         Bfn.  Coefficient  Atom+Function  
  ----- ------------  ---------------      ----- ------------  ---------------
     9      0.304436   2 C  py                4     -0.304436   1 C  py        
    24     -0.286104   5 C  py               29      0.286104   6 C  py        
    31      0.254639   7 H  s                32      0.254639   8 H  s         
    19     -0.231964   4 C  py               14      0.231964   3 C  py        
    45      0.179337  13 H  s                46      0.179337  14 H  s         

 Vector   32  Occ=2.000000D+00  E=-2.238508D-01
              MO Center= -6.1D-08, -3.9D-09,  1.2D-11, r^2= 7.5D+00
   Bfn.  Coefficient  Atom+Function         Bfn.  Coefficient  Atom+Function  
  ----- ------------  ---------------      ----- ------------  ---------------
    44      0.373011  12 C  pz               39     -0.373011  11 C  pz        
    10     -0.361036   2 C  pz                5      0.361036   1 C  pz        
    56      0.255625  16 C  pz               51     -0.255625  15 C  pz        

 Vector   33  Occ=2.000000D+00  E=-1.748893D-01
              MO Center= -5.1D-08,  4.5D-08, -9.7D-11, r^2= 1.1D+01
   Bfn.  Coefficient  Atom+Function         Bfn.  Coefficient  Atom+Function  
  ----- ------------  ---------------      ----- ------------  ---------------
    39      0.414825  11 C  pz               44      0.414825  12 C  pz        
    56      0.413288  16 C  pz               51      0.413288  15 C  pz        
    15     -0.184675   3 C  pz               20     -0.184675   4 C  pz        
    25     -0.180339   5 C  pz               30     -0.180339   6 C  pz        

 Vector   34  Occ=2.000000D+00  E=-1.624138D-01
              MO Center=  2.2D-09, -7.4D-08,  1.3D-10, r^2= 2.7D+00
   Bfn.  Coefficient  Atom+Function         Bfn.  Coefficient  Atom+Function  
  ----- ------------  ---------------      ----- ------------  ---------------
    20     -0.465590   4 C  pz               15      0.465590   3 C  pz        
    30     -0.455346   6 C  pz               25      0.455346   5 C  pz        

 Vector   35  Occ=2.000000D+00  E=-1.241322D-01
              MO Center=  1.0D-07,  2.2D-10, -5.5D-11, r^2= 8.5D+00
   Bfn.  Coefficient  Atom+Function         Bfn.  Coefficient  Atom+Function  
  ----- ------------  ---------------      ----- ------------  ---------------
    51     -0.413027  15 C  pz               56      0.413027  16 C  pz        
     5     -0.373785   1 C  pz               10      0.373785   2 C  pz        
    25      0.230825   5 C  pz               30     -0.230825   6 C  pz        
    39     -0.226530  11 C  pz               44      0.226530  12 C  pz        
    20      0.205842   4 C  pz               15     -0.205842   3 C  pz        

 Vector   36  Occ=0.000000D+00  E= 1.144796D-02
              MO Center= -6.3D-08, -8.9D-10, -2.9D-11, r^2= 8.3D+00
   Bfn.  Coefficient  Atom+Function         Bfn.  Coefficient  Atom+Function  
  ----- ------------  ---------------      ----- ------------  ---------------
    56     -0.462941  16 C  pz               51     -0.462941  15 C  pz        
    10      0.431553   2 C  pz                5      0.431553   1 C  pz        
    30     -0.278386   6 C  pz               25     -0.278386   5 C  pz        
    44      0.257459  12 C  pz               39      0.257459  11 C  pz        
    15     -0.223713   3 C  pz               20     -0.223713   4 C  pz        

 Vector   37  Occ=0.000000D+00  E= 5.908967D-02
              MO Center= -3.1D-09,  5.8D-08, -1.2D-10, r^2= 2.7D+00
   Bfn.  Coefficient  Atom+Function         Bfn.  Coefficient  Atom+Function  
  ----- ------------  ---------------      ----- ------------  ---------------
    15     -0.584661   3 C  pz               20     -0.584661   4 C  pz        
    25      0.550755   5 C  pz               30      0.550755   6 C  pz        

 Vector   38  Occ=0.000000D+00  E= 7.557897D-02
              MO Center=  4.1D-08, -3.4D-08,  2.1D-10, r^2= 1.1D+01
   Bfn.  Coefficient  Atom+Function         Bfn.  Coefficient  Atom+Function  
  ----- ------------  ---------------      ----- ------------  ---------------
    44     -0.521860  12 C  pz               39      0.521860  11 C  pz        
    51     -0.519169  15 C  pz               56      0.519169  16 C  pz        
    20     -0.246518   4 C  pz               15      0.246518   3 C  pz        
    30      0.236345   6 C  pz               25     -0.236345   5 C  pz        

 Vector   39  Occ=0.000000D+00  E= 1.429201D-01
              MO Center=  4.6D-08,  1.9D-09, -7.8D-11, r^2= 7.8D+00
   Bfn.  Coefficient  Atom+Function         Bfn.  Coefficient  Atom+Function  
  ----- ------------  ---------------      ----- ------------  ---------------
    39      0.527207  11 C  pz               44      0.527207  12 C  pz        
     5     -0.504751   1 C  pz               10     -0.504751   2 C  pz        
    51     -0.369494  15 C  pz               56     -0.369494  16 C  pz        
    30      0.203856   6 C  pz               25      0.203856   5 C  pz        
    15      0.168271   3 C  pz               20      0.168271   4 C  pz        

 Vector   40  Occ=0.000000D+00  E= 2.250102D-01
              MO Center=  4.2D-08, -1.9D-08, -2.3D-10, r^2= 3.8D+00
   Bfn.  Coefficient  Atom+Function         Bfn.  Coefficient  Atom+Function  
  ----- ------------  ---------------      ----- ------------  ---------------
    10      0.545405   2 C  pz                5     -0.545405   1 C  pz        
    30      0.465292   6 C  pz               25     -0.465292   5 C  pz        
    20     -0.462218   4 C  pz               15      0.462218   3 C  pz        
    39     -0.290558  11 C  pz               44      0.290558  12 C  pz        
    51      0.154891  15 C  pz               56     -0.154891  16 C  pz        

 Vector   41  Occ=0.000000D+00  E= 2.950470D-01
              MO Center= -1.1D-06,  4.8D-07, -2.4D-11, r^2= 8.9D+00
   Bfn.  Coefficient  Atom+Function         Bfn.  Coefficient  Atom+Function  
  ----- ------------  ---------------      ----- ------------  ---------------
     2     -0.423514   1 C  s                 7     -0.423514   2 C  s         
    33      0.407950   9 H  s                34      0.407950  10 H  s         
    31      0.405243   7 H  s                32      0.405242   8 H  s         
    60      0.357732  20 H  s                59      0.357732  19 H  s         
    42      0.355989  12 C  px               37     -0.355988  11 C  px        

 Vector   42  Occ=0.000000D+00  E= 3.009385D-01
              MO Center=  8.6D-07, -5.3D-07, -1.3D-10, r^2= 9.9D+00
   Bfn.  Coefficient  Atom+Function         Bfn.  Coefficient  Atom+Function  
  ----- ------------  ---------------      ----- ------------  ---------------
    45     -0.415312  13 H  s                46      0.415312  14 H  s         
    19     -0.356022   4 C  py               14     -0.356022   3 C  py        
    38     -0.337660  11 C  py               43     -0.337660  12 C  py        
    32     -0.328591   8 H  s                31      0.328591   7 H  s         
    57      0.318552  17 H  s                58     -0.318552  18 H  s         

 Vector   43  Occ=0.000000D+00  E= 3.372146D-01
              MO Center=  7.3D-08,  7.1D-08, -2.4D-10, r^2= 7.1D+00
   Bfn.  Coefficient  Atom+Function         Bfn.  Coefficient  Atom+Function  
  ----- ------------  ---------------      ----- ------------  ---------------
    36      0.538602  11 C  s                41     -0.538602  12 C  s         
     8     -0.470381   2 C  px                3     -0.470381   1 C  px        
    33      0.417443   9 H  s                34     -0.417443  10 H  s         
    37     -0.346007  11 C  px               42     -0.346007  12 C  px        
     7     -0.323168   2 C  s                 2      0.323168   1 C  s         

 Vector   44  Occ=0.000000D+00  E= 3.446676D-01
              MO Center= -8.8D-08,  3.2D-08,  8.7D-11, r^2= 1.1D+01
   Bfn.  Coefficient  Atom+Function         Bfn.  Coefficient  Atom+Function  
  ----- ------------  ---------------      ----- ------------  ---------------
    46      0.564481  14 H  s                45      0.564481  13 H  s         
    12      0.401943   3 C  s                17      0.401943   4 C  s         
    58     -0.390595  18 H  s                57     -0.390595  17 H  s         
    41     -0.369837  12 C  s                36     -0.369837  11 C  s         
    38      0.323697  11 C  py               43     -0.323697  12 C  py        

 Vector   45  Occ=0.000000D+00  E= 3.725321D-01
              MO Center= -2.2D-06, -6.7D-07,  4.1D-10, r^2= 1.0D+01
   Bfn.  Coefficient  Atom+Function         Bfn.  Coefficient  Atom+Function  
  ----- ------------  ---------------      ----- ------------  ---------------
    27      0.663566   6 C  s                22      0.663566   5 C  s         
    53      0.613623  16 C  s                48      0.613622  15 C  s         
    58     -0.486695  18 H  s                57     -0.486694  17 H  s         
    17     -0.425508   4 C  s                12     -0.425508   3 C  s         
     2     -0.353403   1 C  s                 7     -0.353403   2 C  s         

 Vector   46  Occ=0.000000D+00  E= 3.749889D-01
              MO Center=  2.0D-06,  7.1D-07,  5.9D-10, r^2= 1.1D+01
   Bfn.  Coefficient  Atom+Function         Bfn.  Coefficient  Atom+Function  
  ----- ------------  ---------------      ----- ------------  ---------------
    22      0.607688   5 C  s                27     -0.607687   6 C  s         
    48      0.558233  15 C  s                53     -0.558232  16 C  s         
     7     -0.453738   2 C  s                 2      0.453738   1 C  s         
    57     -0.451626  17 H  s                58      0.451626  18 H  s         
    12     -0.403449   3 C  s                17      0.403449   4 C  s         

 Vector   47  Occ=0.000000D+00  E= 3.858061D-01
              MO Center=  1.9D-07, -7.6D-08, -1.2D-10, r^2= 9.4D+00
   Bfn.  Coefficient  Atom+Function         Bfn.  Coefficient  Atom+Function  
  ----- ------------  ---------------      ----- ------------  ---------------
    32      0.600913   8 H  s                31     -0.600913   7 H  s         
    45     -0.432005  13 H  s                46      0.432005  14 H  s         
    36      0.421035  11 C  s                41     -0.421035  12 C  s         
    17     -0.363731   4 C  s                12      0.363731   3 C  s         
    59     -0.348880  19 H  s                60      0.348880  20 H  s         

 Vector   48  Occ=0.000000D+00  E= 4.010204D-01
              MO Center= -1.6D-07,  3.2D-08,  6.2D-11, r^2= 7.4D+00
   Bfn.  Coefficient  Atom+Function         Bfn.  Coefficient  Atom+Function  
  ----- ------------  ---------------      ----- ------------  ---------------
     2      0.778534   1 C  s                 7      0.778534   2 C  s         
    12     -0.555752   3 C  s                17     -0.555752   4 C  s         
    41     -0.530466  12 C  s                36     -0.530466  11 C  s         
    53      0.423760  16 C  s                48      0.423760  15 C  s         
    46      0.354627  14 H  s                45      0.354627  13 H  s         

 Vector   49  Occ=0.000000D+00  E= 4.181151D-01
              MO Center=  3.1D-07, -3.1D-08, -2.8D-11, r^2= 1.2D+01
   Bfn.  Coefficient  Atom+Function         Bfn.  Coefficient  Atom+Function  
  ----- ------------  ---------------      ----- ------------  ---------------
    48      0.711176  15 C  s                53     -0.711175  16 C  s         
    57     -0.521669  17 H  s                58      0.521668  18 H  s         
    36     -0.457722  11 C  s                41      0.457722  12 C  s         
    34     -0.451568  10 H  s                33      0.451568   9 H  s         
    27      0.395563   6 C  s                22     -0.395563   5 C  s         

 Vector   50  Occ=0.000000D+00  E= 4.370926D-01
              MO Center=  8.9D-08,  1.7D-09, -2.3D-10, r^2= 1.1D+01
   Bfn.  Coefficient  Atom+Function         Bfn.  Coefficient  Atom+Function  
  ----- ------------  ---------------      ----- ------------  ---------------
    12      0.678120   3 C  s                17      0.678120   4 C  s         
    27     -0.612749   6 C  s                22     -0.612749   5 C  s         
    59     -0.502760  19 H  s                60     -0.502760  20 H  s         
    48      0.432339  15 C  s                53      0.432339  16 C  s         
    49      0.401745  15 C  px               54     -0.401745  16 C  px        

 Vector   51  Occ=0.000000D+00  E= 4.746702D-01
              MO Center= -2.4D-08,  2.2D-09, -7.3D-11, r^2= 6.4D+00
   Bfn.  Coefficient  Atom+Function         Bfn.  Coefficient  Atom+Function  
  ----- ------------  ---------------      ----- ------------  ---------------
     8     -0.615549   2 C  px                3      0.615549   1 C  px        
    41      0.517588  12 C  s                36      0.517588  11 C  s         
    19     -0.455510   4 C  py               14      0.455510   3 C  py        
     2      0.418703   1 C  s                 7      0.418703   2 C  s         
    55     -0.321513  16 C  py               50      0.321513  15 C  py        

 Vector   52  Occ=0.000000D+00  E= 4.951121D-01
              MO Center= -5.0D-08, -4.7D-08, -1.2D-11, r^2= 7.7D+00
   Bfn.  Coefficient  Atom+Function         Bfn.  Coefficient  Atom+Function  
  ----- ------------  ---------------      ----- ------------  ---------------
    17     -0.659981   4 C  s                12      0.659980   3 C  s         
     4     -0.553013   1 C  py                9     -0.553013   2 C  py        
    23      0.480258   5 C  px               28      0.480258   6 C  px        
    54     -0.474158  16 C  px               49     -0.474158  15 C  px        
    60     -0.354380  20 H  s                59      0.354380  19 H  s         

 Vector   53  Occ=0.000000D+00  E= 5.252488D-01
              MO Center=  2.8D-08,  1.1D-08,  1.2D-11, r^2= 5.5D+00
   Bfn.  Coefficient  Atom+Function         Bfn.  Coefficient  Atom+Function  
  ----- ------------  ---------------      ----- ------------  ---------------
    14      0.537753   3 C  py               19     -0.537753   4 C  py        
    34      0.536680  10 H  s                33      0.536680   9 H  s         
    24     -0.520037   5 C  py               29      0.520037   6 C  py        
    31     -0.464991   7 H  s                32     -0.464991   8 H  s         
    28      0.389413   6 C  px               23     -0.389413   5 C  px        

 Vector   54  Occ=0.000000D+00  E= 5.441028D-01
              MO Center=  3.1D-09,  4.2D-08, -8.5D-11, r^2= 4.5D+00
   Bfn.  Coefficient  Atom+Function         Bfn.  Coefficient  Atom+Function  
  ----- ------------  ---------------      ----- ------------  ---------------
    13      0.714652   3 C  px               18      0.714652   4 C  px        
    22     -0.589098   5 C  s                27      0.589098   6 C  s         
     2      0.451716   1 C  s                 7     -0.451716   2 C  s         
    41     -0.407089  12 C  s                36      0.407089  11 C  s         
    23      0.400599   5 C  px               28      0.400599   6 C  px        

 Vector   55  Occ=0.000000D+00  E= 5.706559D-01
              MO Center= -5.2D-07,  1.1D-08, -5.0D-13, r^2= 1.1D+01
   Bfn.  Coefficient  Atom+Function         Bfn.  Coefficient  Atom+Function  
  ----- ------------  ---------------      ----- ------------  ---------------
     2     -0.567703   1 C  s                 7      0.567703   2 C  s         
    55      0.551732  16 C  py               50      0.551732  15 C  py        
    42      0.482996  12 C  px               37      0.482996  11 C  px        
    58      0.384919  18 H  s                57     -0.384919  17 H  s         
    46      0.375675  14 H  s                45     -0.375675  13 H  s         

 Vector   56  Occ=0.000000D+00  E= 5.827675D-01
              MO Center=  4.7D-07, -2.6D-08,  6.8D-12, r^2= 9.5D+00
   Bfn.  Coefficient  Atom+Function         Bfn.  Coefficient  Atom+Function  
  ----- ------------  ---------------      ----- ------------  ---------------
    38      0.546263  11 C  py               43     -0.546263  12 C  py        
    49      0.539448  15 C  px               54     -0.539448  16 C  px        
    18      0.406230   4 C  px               13     -0.406230   3 C  px        
     8     -0.337105   2 C  px                3      0.337105   1 C  px        
    59     -0.332474  19 H  s                60     -0.332474  20 H  s         

 Vector   57  Occ=0.000000D+00  E= 6.217564D-01
              MO Center= -1.6D-08,  3.1D-09,  1.6D-11, r^2= 9.5D+00
   Bfn.  Coefficient  Atom+Function         Bfn.  Coefficient  Atom+Function  
  ----- ------------  ---------------      ----- ------------  ---------------
    42      0.657484  12 C  px               37     -0.657484  11 C  px        
    55      0.588406  16 C  py               50     -0.588406  15 C  py        
    23      0.448465   5 C  px               28     -0.448465   6 C  px        
    18     -0.386320   4 C  px               13      0.386320   3 C  px        
     8     -0.375308   2 C  px                3      0.375308   1 C  px        

 Vector   58  Occ=0.000000D+00  E= 6.561422D-01
              MO Center=  7.8D-08,  9.9D-10,  3.4D-11, r^2= 9.6D+00
   Bfn.  Coefficient  Atom+Function         Bfn.  Coefficient  Atom+Function  
  ----- ------------  ---------------      ----- ------------  ---------------
    38      0.611654  11 C  py               43      0.611654  12 C  py        
    48     -0.547985  15 C  s                53      0.547985  16 C  s         
    49      0.539055  15 C  px               54      0.539055  16 C  px        
    36      0.470912  11 C  s                41     -0.470912  12 C  s         
    37      0.464687  11 C  px               42      0.464687  12 C  px        

 Vector   59  Occ=0.000000D+00  E= 7.112800D-01
              MO Center=  5.8D-08, -1.9D-08, -2.7D-11, r^2= 5.6D+00
   Bfn.  Coefficient  Atom+Function         Bfn.  Coefficient  Atom+Function  
  ----- ------------  ---------------      ----- ------------  ---------------
     9      0.696998   2 C  py                4     -0.696998   1 C  py        
    13     -0.521842   3 C  px               18      0.521842   4 C  px        
    38     -0.443787  11 C  py               43      0.443787  12 C  py        
    29     -0.428892   6 C  py               24      0.428892   5 C  py        
    23     -0.402929   5 C  px               28      0.402929   6 C  px        

 Vector   60  Occ=0.000000D+00  E= 7.286788D-01
              MO Center=  4.2D-08, -3.6D-09, -1.2D-11, r^2= 3.4D+00
   Bfn.  Coefficient  Atom+Function         Bfn.  Coefficient  Atom+Function  
  ----- ------------  ---------------      ----- ------------  ---------------
     8     -0.655186   2 C  px                3     -0.655186   1 C  px        
    14     -0.570985   3 C  py               19     -0.570985   4 C  py        
    24      0.500341   5 C  py               29      0.500341   6 C  py        
    27      0.413927   6 C  s                22     -0.413927   5 C  s         
    28      0.395840   6 C  px               23      0.395840   5 C  px        

                                 Final MO vectors
                                 ----------------


 global array: alpha evecs[1:60,1:60],  handle: -995 

            1           2           3           4           5           6  
       ----------- ----------- ----------- ----------- ----------- -----------
   1      -0.69696    -0.69696    -0.00359    -0.03630     0.03306    -0.04415
   2      -0.03757    -0.03725     0.00062     0.00776    -0.00423     0.00659
   3      -0.00115    -0.00080    -0.00087     0.00500     0.00521    -0.00409
   4       0.00003    -0.00003    -0.00647    -0.00133    -0.00089     0.00046
   5       0.00000     0.00000    -0.00000    -0.00000    -0.00000     0.00000
   6       0.69681    -0.69711    -0.00360     0.03630     0.03308     0.04413
   7       0.03756    -0.03725     0.00062    -0.00776    -0.00424    -0.00659
   8      -0.00115     0.00080     0.00087     0.00500    -0.00521    -0.00409
   9       0.00003     0.00003     0.00647    -0.00133     0.00089     0.00046
  10      -0.00000     0.00000    -0.00000     0.00000     0.00000    -0.00000
  11       0.03029     0.02896     0.45934    -0.44241    -0.02684    -0.09022
  12       0.01009     0.00875     0.02992    -0.02902    -0.00122    -0.00587
  13      -0.00312    -0.00375     0.00440    -0.00458     0.00027    -0.00110
  14      -0.00444    -0.00408    -0.00122     0.00132     0.00026     0.00009
  15      -0.00000    -0.00000     0.00000    -0.00000     0.00000     0.00000
  16      -0.03029     0.02897     0.45922     0.44253    -0.02679     0.09024
  17      -0.01009     0.00875     0.02991     0.02903    -0.00121     0.00587
  18      -0.00312     0.00375    -0.00440    -0.00458    -0.00027    -0.00110
  19      -0.00444     0.00408     0.00122     0.00132    -0.00026     0.00009
  20       0.00000     0.00000    -0.00000    -0.00000     0.00000    -0.00000
  21      -0.03073     0.02923    -0.52643     0.51822    -0.03617     0.11722
  22      -0.01005     0.00869    -0.03263     0.03212    -0.00173     0.00704
  23      -0.00154     0.00226     0.00413    -0.00428    -0.00007    -0.00087
  24       0.00517    -0.00500    -0.00013     0.00000     0.00034     0.00022
  25      -0.00000    -0.00000     0.00000    -0.00000    -0.00000    -0.00000
  26       0.03073     0.02922    -0.52629    -0.51835    -0.03623    -0.11721
  27       0.01005     0.00869    -0.03262    -0.03212    -0.00174    -0.00704
  28      -0.00154    -0.00226    -0.00413    -0.00428     0.00007    -0.00087
  29       0.00517     0.00500     0.00013     0.00000    -0.00034     0.00022
  30      -0.00000    -0.00000     0.00000     0.00000     0.00000     0.00000
  31      -0.00054    -0.00039    -0.00517     0.00502     0.00027     0.00103
  32       0.00054    -0.00039    -0.00517    -0.00502     0.00027    -0.00103
  33       0.00054    -0.00039     0.00594    -0.00582     0.00021    -0.00148
  34      -0.00054    -0.00039     0.00594     0.00582     0.00021     0.00148
  35      -0.03408     0.03448    -0.00948    -0.15001     0.69698     0.68167
  36      -0.00844     0.00852    -0.00048    -0.00784     0.03635     0.03557
  37       0.00487    -0.00491    -0.00008    -0.00016     0.00146     0.00146
  38      -0.00110     0.00111    -0.00019    -0.00019     0.00099     0.00098
  39       0.00000     0.00000     0.00000    -0.00000     0.00000     0.00000
  40       0.03409     0.03447    -0.00952     0.15000     0.69667    -0.68198
  41       0.00844     0.00851    -0.00048     0.00784     0.03634    -0.03558
  42       0.00487     0.00491     0.00008    -0.00016    -0.00146     0.00146
  43      -0.00110    -0.00111     0.00019    -0.00019    -0.00099     0.00098
  44       0.00000    -0.00000    -0.00000    -0.00000     0.00000    -0.00000
  45       0.00048    -0.00050     0.00012     0.00162    -0.00777    -0.00762
  46      -0.00048    -0.00050     0.00012    -0.00162    -0.00776     0.00762
  47       0.00062    -0.00064     0.00048     0.00338    -0.01918    -0.01899
  48       0.00068    -0.00069     0.00021     0.00197    -0.00982    -0.00965
  49      -0.00041     0.00042    -0.00007    -0.00084     0.00427     0.00420
  50      -0.00002     0.00002    -0.00002    -0.00086     0.00383     0.00373
  51      -0.00000    -0.00000    -0.00000     0.00000    -0.00000     0.00000
  52      -0.00062    -0.00064     0.00048    -0.00338    -0.01917     0.01900
  53      -0.00068    -0.00069     0.00021    -0.00197    -0.00982     0.00965
  54      -0.00041    -0.00042     0.00007    -0.00084    -0.00427     0.00420
  55      -0.00002    -0.00002     0.00002    -0.00085    -0.00383     0.00374
  56      -0.00000     0.00000     0.00000     0.00000    -0.00000     0.00000
  57      -0.00019     0.00018    -0.00020     0.00010     0.00035     0.00039
  58       0.00019     0.00018    -0.00020    -0.00010     0.00035    -0.00039
  59      -0.00004     0.00004    -0.00000    -0.00010     0.00040     0.00038
  60       0.00004     0.00004    -0.00000     0.00010     0.00040    -0.00038

            7           8           9          10          11          12  
       ----------- ----------- ----------- ----------- ----------- -----------
   1      -0.00369     0.04498     0.00048    -0.00031     0.10946    -0.10604
   2       0.00079    -0.00856     0.00011    -0.00007    -0.27387     0.27572
   3       0.00132    -0.00353     0.00002    -0.00001    -0.04384    -0.03521
   4       0.00629     0.00015    -0.00009     0.00006     0.00565     0.00458
   5       0.00000     0.00000    -0.00000    -0.00000     0.00000    -0.00000
   6       0.00368     0.04498    -0.00029    -0.00049     0.10946     0.10604
   7      -0.00079    -0.00856    -0.00007    -0.00011    -0.27387    -0.27572
   8       0.00132     0.00353     0.00001     0.00002     0.04384    -0.03521
   9       0.00629    -0.00015    -0.00005    -0.00009    -0.00565     0.00458
  10       0.00000    -0.00000    -0.00000     0.00000     0.00000     0.00000
  11      -0.53301     0.52584     0.00045    -0.00058     0.09934    -0.04027
  12      -0.02265     0.02195    -0.00001     0.00006    -0.24641     0.10358
  13       0.00301    -0.00298     0.00010    -0.00001    -0.01514    -0.06162
  14       0.00019     0.00027     0.00001    -0.00002     0.05603    -0.02729
  15      -0.00000     0.00000     0.00000     0.00000     0.00000     0.00000
  16       0.53300     0.52586    -0.00014    -0.00072     0.09934     0.04027
  17       0.02265     0.02195    -0.00002     0.00006    -0.24641    -0.10358
  18       0.00301     0.00298     0.00009     0.00005     0.01514    -0.06162
  19       0.00019    -0.00027     0.00000     0.00002    -0.05603    -0.02729
  20      -0.00000    -0.00000     0.00000    -0.00000    -0.00000     0.00000
  21      -0.45347     0.45802    -0.00054    -0.00103     0.09898     0.04402
  22      -0.01760     0.01768     0.00001     0.00006    -0.24584    -0.11374
  23      -0.00355     0.00351     0.00010     0.00012     0.03255    -0.04980
  24       0.00114    -0.00071    -0.00001    -0.00001     0.04832     0.04480
  25      -0.00000     0.00000    -0.00000     0.00000    -0.00000     0.00000
  26       0.45346     0.45803     0.00095    -0.00067     0.09898    -0.04402
  27       0.01760     0.01768    -0.00004     0.00005    -0.24584     0.11374
  28      -0.00355    -0.00351     0.00014    -0.00007    -0.03255    -0.04980
  29       0.00114     0.00071    -0.00001     0.00000    -0.04832     0.04480
  30      -0.00000    -0.00000    -0.00000     0.00000     0.00000    -0.00000
  31       0.00570    -0.00581    -0.00002     0.00002    -0.04550     0.02793
  32      -0.00570    -0.00581     0.00001     0.00003    -0.04550    -0.02793
  33       0.00482    -0.00508    -0.00010    -0.00016    -0.04578    -0.03220
  34      -0.00482    -0.00508     0.00016    -0.00010    -0.04578     0.03220
  35       0.00716     0.04195    -0.01512    -0.02467     0.04949     0.11483
  36       0.00039     0.00205     0.00578     0.00942    -0.12555    -0.29474
  37       0.00003     0.00037     0.00308     0.00503     0.03015     0.01160
  38      -0.00004     0.00005     0.00284     0.00464    -0.01221    -0.03285
  39      -0.00000     0.00000    -0.00000    -0.00000    -0.00000     0.00000
  40      -0.00716     0.04195     0.02466    -0.01512     0.04949    -0.11483
  41      -0.00039     0.00205    -0.00942     0.00578    -0.12555     0.29474
  42       0.00003    -0.00037     0.00503    -0.00308    -0.03015     0.01160
  43      -0.00004    -0.00005     0.00464    -0.00284     0.01221    -0.03285
  44      -0.00000    -0.00000    -0.00000     0.00000     0.00000     0.00000
  45      -0.00010    -0.00057     0.00004     0.00007    -0.02566    -0.06753
  46       0.00010    -0.00057    -0.00007     0.00005    -0.02566     0.06753
  47       0.00006    -0.00222    -0.51667    -0.84287     0.02410     0.08023
  48      -0.00007    -0.00076    -0.02684    -0.04379    -0.06025    -0.20457
  49       0.00003     0.00037     0.00080     0.00130     0.02045     0.04992
  50       0.00008     0.00021     0.00077     0.00126     0.01175     0.03654
  51       0.00000    -0.00000     0.00000     0.00000     0.00000    -0.00000
  52      -0.00006    -0.00222     0.84287    -0.51667     0.02410    -0.08023
  53       0.00007    -0.00076     0.04379    -0.02684    -0.06025     0.20457
  54       0.00003    -0.00037     0.00130    -0.00080    -0.02045     0.04992
  55       0.00008    -0.00021     0.00126    -0.00077    -0.01175     0.03654
  56       0.00000     0.00000     0.00000    -0.00000    -0.00000    -0.00000
  57      -0.00012     0.00014     0.00570     0.00930    -0.01424    -0.04856
  58       0.00012     0.00014    -0.00930     0.00570    -0.01424     0.04856
  59       0.00001     0.00001     0.00571     0.00932    -0.01025    -0.04297
  60      -0.00001     0.00001    -0.00932     0.00571    -0.01025     0.04297

           13          14          15          16          17          18  
       ----------- ----------- ----------- ----------- ----------- -----------
   1       0.00632     0.01352     0.09927    -0.06952    -0.05872     0.01421
   2      -0.01967    -0.03590    -0.26806     0.19768     0.16960    -0.03962
   3       0.10119    -0.02287    -0.05565    -0.07191    -0.06553    -0.13539
   4      -0.00959    -0.12779     0.01762     0.13191    -0.18246     0.05841
   5      -0.00000    -0.00000     0.00000     0.00000    -0.00000     0.00000
   6       0.00632    -0.01352    -0.09927    -0.06952    -0.05872    -0.01421
   7      -0.01967     0.03590     0.26806     0.19768     0.16960     0.03962
   8      -0.10119    -0.02287    -0.05565     0.07191     0.06553    -0.13539
   9       0.00959    -0.12779     0.01762    -0.13191     0.18246     0.05841
  10      -0.00000     0.00000     0.00000     0.00000    -0.00000     0.00000
  11      -0.04647     0.13405     0.03899    -0.00766     0.11083     0.05238
  12       0.11920    -0.35570    -0.10600     0.02281    -0.32026    -0.15704
  13       0.03961    -0.05446     0.09283    -0.16526     0.02877    -0.00124
  14      -0.01744    -0.00720     0.03811    -0.02658    -0.08721     0.00586
  15       0.00000    -0.00000     0.00000    -0.00000     0.00000     0.00000
  16      -0.04647    -0.13405    -0.03899    -0.00766     0.11083    -0.05238
  17       0.11920     0.35570     0.10600     0.02281    -0.32026     0.15704
  18      -0.03961    -0.05446     0.09283     0.16526    -0.02877    -0.00124
  19       0.01744    -0.00720     0.03811     0.02658     0.08721     0.00586
  20      -0.00000    -0.00000     0.00000    -0.00000    -0.00000    -0.00000
  21      -0.04130     0.12089    -0.07480     0.08473    -0.05305    -0.02966
  22       0.10566    -0.32051     0.20320    -0.23624     0.15428     0.08831
  23      -0.05131     0.06430     0.04606     0.01696     0.17406     0.08369
  24      -0.00286    -0.03780    -0.05206    -0.06240    -0.09281    -0.03936
  25      -0.00000     0.00000     0.00000    -0.00000    -0.00000    -0.00000
  26      -0.04130    -0.12089     0.07480     0.08473    -0.05305     0.02966
  27       0.10566     0.32051    -0.20320    -0.23624     0.15428    -0.08831
  28       0.05131     0.06430     0.04606    -0.01696    -0.17406     0.08369
  29       0.00286    -0.03780    -0.05206     0.06240     0.09281    -0.03936
  30      -0.00000    -0.00000     0.00000     0.00000    -0.00000    -0.00000
  31       0.02243    -0.09910    -0.03026     0.02604    -0.16426    -0.04815
  32       0.02243     0.09910     0.03026     0.02604    -0.16426     0.04815
  33       0.01455    -0.09033     0.05309    -0.10687     0.07408     0.05475
  34       0.01455     0.09033    -0.05309    -0.10687     0.07408    -0.05475
  35       0.12143     0.00006     0.05326    -0.05207    -0.00759     0.09997
  36      -0.31492     0.00073    -0.13879     0.15380     0.02409    -0.30097
  37      -0.05605    -0.02058    -0.13207    -0.12899    -0.08584     0.03908
  38      -0.04463    -0.02664    -0.03941    -0.08689     0.05075     0.12202
  39      -0.00000    -0.00000    -0.00000     0.00000    -0.00000    -0.00000
  40       0.12143    -0.00006    -0.05326    -0.05207    -0.00759    -0.09997
  41      -0.31492    -0.00073     0.13879     0.15380     0.02409     0.30097
  42       0.05605    -0.02058    -0.13207     0.12899     0.08584     0.03908
  43       0.04463    -0.02664    -0.03941     0.08689    -0.05075     0.12202
  44      -0.00000     0.00000    -0.00000     0.00000    -0.00000     0.00000
  45      -0.07735     0.01073    -0.03843     0.07866    -0.03410    -0.16832
  46      -0.07735    -0.01073     0.03843     0.07866    -0.03410     0.16832
  47       0.11839     0.01641     0.11314     0.08379     0.04149    -0.08123
  48      -0.30704    -0.04192    -0.30238    -0.23671    -0.12250     0.24699
  49       0.05215     0.00728     0.01388    -0.03568    -0.05445     0.08865
  50       0.04926    -0.00199     0.03598    -0.03555     0.01701     0.12804
  51      -0.00000     0.00000     0.00000    -0.00000     0.00000     0.00000
  52       0.11839    -0.01641    -0.11314     0.08379     0.04149     0.08123
  53      -0.30704     0.04192     0.30238    -0.23671    -0.12250    -0.24699
  54      -0.05215     0.00728     0.01388     0.03568     0.05445     0.08865
  55      -0.04926    -0.00199     0.03598     0.03555    -0.01701     0.12804
  56       0.00000     0.00000     0.00000     0.00000    -0.00000     0.00000
  57      -0.07416    -0.01681    -0.07742    -0.10095    -0.02327     0.15879
  58      -0.07416     0.01681     0.07742    -0.10095    -0.02327    -0.15879
  59      -0.07468    -0.01001    -0.09143    -0.09326    -0.07141     0.11960
  60      -0.07468     0.01001     0.09143    -0.09326    -0.07142    -0.11960

           19          20          21          22          23          24  
       ----------- ----------- ----------- ----------- ----------- -----------
   1      -0.05013    -0.03496     0.01747    -0.06809    -0.03359    -0.02260
   2       0.14374     0.11189    -0.05892     0.22691     0.11249     0.07356
   3       0.15424    -0.12256     0.14159     0.00175     0.15253    -0.01000
   4       0.02063     0.05444     0.13721     0.12376    -0.20605     0.01428
   5       0.00000    -0.00000     0.00000    -0.00000     0.00000    -0.00000
   6      -0.05013    -0.03496    -0.01747     0.06809     0.03359    -0.02260
   7       0.14374     0.11189     0.05892    -0.22691    -0.11249     0.07356
   8      -0.15424     0.12256     0.14159     0.00175     0.15253     0.01000
   9      -0.02063    -0.05444     0.13721     0.12376    -0.20605    -0.01428
  10       0.00000    -0.00000    -0.00000    -0.00000    -0.00000    -0.00000
  11       0.00704    -0.01592    -0.01999     0.04934     0.00502     0.02696
  12      -0.02705     0.05976     0.06597    -0.16748    -0.02032    -0.08859
  13      -0.07838    -0.14588    -0.19395    -0.06428     0.11595    -0.08181
  14      -0.19653     0.12564     0.00015    -0.22508    -0.03726     0.00426
  15       0.00000     0.00000     0.00000    -0.00000     0.00000    -0.00000
  16       0.00704    -0.01592     0.01999    -0.04934    -0.00502     0.02696
  17      -0.02705     0.05976    -0.06597     0.16748     0.02032    -0.08859
  18       0.07838     0.14588    -0.19395    -0.06428     0.11595     0.08181
  19       0.19653    -0.12564     0.00015    -0.22508    -0.03726    -0.00426
  20       0.00000    -0.00000     0.00000    -0.00000     0.00000    -0.00000
  21       0.05387     0.02285     0.04176    -0.04909     0.00618    -0.02064
  22      -0.16935    -0.06401    -0.13333     0.16745    -0.01620     0.07617
  23      -0.05080     0.12850     0.11577     0.18064    -0.03354     0.14000
  24      -0.20979     0.07415    -0.09074     0.08497     0.26686     0.03604
  25       0.00000    -0.00000     0.00000    -0.00000     0.00000    -0.00000
  26       0.05387     0.02285    -0.04176     0.04909    -0.00618    -0.02064
  27      -0.16935    -0.06401     0.13333    -0.16745     0.01620     0.07617
  28       0.05080    -0.12850     0.11577     0.18064    -0.03354    -0.14000
  29       0.20979    -0.07415    -0.09074     0.08497     0.26686    -0.03604
  30       0.00000     0.00000     0.00000    -0.00000     0.00000    -0.00000
  31      -0.10189     0.12502     0.08314    -0.22277    -0.06933    -0.00966
  32      -0.10189     0.12502    -0.08314     0.22277     0.06933    -0.00966
  33      -0.17085     0.07466    -0.04563     0.21043     0.15908     0.11215
  34      -0.17085     0.07466     0.04563    -0.21043    -0.15908     0.11215
  35       0.05582     0.04666    -0.02010    -0.01333    -0.00367     0.02898
  36      -0.16663    -0.14612     0.05941     0.03421     0.01673    -0.08229
  37       0.01301    -0.18619    -0.09833     0.15410    -0.16689    -0.07697
  38       0.05655     0.12023     0.22013     0.02407    -0.03065    -0.25524
  39       0.00000    -0.00000    -0.00000    -0.00000    -0.00000     0.00000
  40       0.05582     0.04666     0.02010     0.01333     0.00367     0.02898
  41      -0.16663    -0.14612    -0.05941    -0.03421    -0.01673    -0.08229
  42      -0.01301     0.18619    -0.09833     0.15410    -0.16689     0.07697
  43      -0.05655    -0.12023     0.22013     0.02407    -0.03065     0.25524
  44       0.00000    -0.00000     0.00000    -0.00000    -0.00000    -0.00000
  45      -0.09780    -0.15628    -0.14232     0.04102     0.00910     0.13944
  46      -0.09780    -0.15628     0.14232    -0.04102    -0.00910     0.13944
  47      -0.05270    -0.02163     0.01121     0.01293     0.00144     0.00439
  48       0.16380     0.07841    -0.04229    -0.05444     0.00571     0.00213
  49       0.08139    -0.00262    -0.21884    -0.10896    -0.05666     0.34290
  50       0.06776     0.22308     0.08356    -0.11484     0.23656     0.01135
  51       0.00000    -0.00000    -0.00000     0.00000     0.00000     0.00000
  52      -0.05270    -0.02163    -0.01121    -0.01293    -0.00144     0.00439
  53       0.16380     0.07841     0.04229     0.05444    -0.00571     0.00213
  54      -0.08139     0.00262    -0.21884    -0.10896    -0.05666    -0.34290
  55      -0.06776    -0.22308     0.08356    -0.11484     0.23656    -0.01135
  56      -0.00000     0.00000    -0.00000     0.00000     0.00000    -0.00000
  57       0.08306     0.18160     0.06144    -0.07153     0.19893    -0.02238
[...]
  51      -0.01504    -0.51917    -0.36949     0.15489    -0.00000     0.00000
  52       0.00000     0.00000     0.00000     0.00000     0.03859     0.00492
  53      -0.00000    -0.00000    -0.00000    -0.00000    -0.21840    -0.03193
  54      -0.00000    -0.00000    -0.00000     0.00000     0.14812     0.15618
  55       0.00000    -0.00000    -0.00000     0.00000    -0.14300    -0.30084
  56      -0.01504     0.51917    -0.36949    -0.15489     0.00000     0.00000
  57      -0.00000     0.00000     0.00000     0.00000    -0.12862     0.31855
  58       0.00000     0.00000    -0.00000     0.00000    -0.12862    -0.31855
  59      -0.00000     0.00000     0.00000    -0.00000     0.35773    -0.28653
  60       0.00000     0.00000    -0.00000     0.00000     0.35773     0.28653

           43          44          45          46          47          48  
       ----------- ----------- ----------- ----------- ----------- -----------
   1      -0.05686     0.02309     0.05956    -0.07854     0.02898    -0.13003
   2       0.32317    -0.13716    -0.35340     0.45374    -0.17716     0.77853
   3      -0.47038    -0.07890     0.15504    -0.01407    -0.22174     0.07162
   4      -0.12855    -0.10262     0.27199    -0.11672     0.12286     0.00118
   5      -0.00000    -0.00000     0.00000     0.00000     0.00000    -0.00000
   6       0.05686     0.02309     0.05956     0.07854    -0.02898    -0.13003
   7      -0.32317    -0.13716    -0.35340    -0.45374     0.17716     0.77853
   8      -0.47038     0.07890    -0.15504    -0.01407    -0.22174    -0.07162
   9      -0.12855     0.10262    -0.27199    -0.11672     0.12286    -0.00118
  10       0.00000     0.00000    -0.00000    -0.00000     0.00000     0.00000
  11       0.02323    -0.06691     0.07077     0.06927    -0.05997     0.09048
  12      -0.13831     0.40194    -0.42551    -0.40345     0.36373    -0.55575
  13      -0.25626    -0.13112    -0.18580    -0.02639    -0.31702     0.26720
  14      -0.15148     0.00393    -0.02480    -0.08531     0.30500    -0.00873
  15       0.00000     0.00000    -0.00000    -0.00000    -0.00000     0.00000
  16      -0.02323    -0.06691     0.07077    -0.06927     0.05997     0.09048
  17       0.13831     0.40194    -0.42551     0.40345    -0.36373    -0.55575
  18      -0.25626     0.13112     0.18580    -0.02639    -0.31702    -0.26720
  19      -0.15148    -0.00393     0.02480    -0.08531     0.30500     0.00873
  20      -0.00000    -0.00000    -0.00000     0.00000     0.00000    -0.00000
  21      -0.00701    -0.02386    -0.11025    -0.10191     0.01071     0.05728
  22       0.03497     0.14898     0.66357     0.60769    -0.05219    -0.35245
  23      -0.32278     0.21520     0.00080     0.15030    -0.12751    -0.24513
  24      -0.27253     0.18671    -0.05366     0.01932     0.22299     0.26248
  25      -0.00000    -0.00000     0.00000     0.00000    -0.00000    -0.00000
  26       0.00701    -0.02386    -0.11025     0.10191    -0.01071     0.05728
  27      -0.03497     0.14898     0.66357    -0.60769     0.05219    -0.35245
  28      -0.32278    -0.21520    -0.00080     0.15030    -0.12751     0.24513
  29      -0.27253    -0.18671     0.05366     0.01932     0.22299    -0.26248
  30       0.00000     0.00000     0.00000    -0.00000    -0.00000     0.00000
  31       0.11942    -0.30494     0.19464     0.29051    -0.60091     0.34207
  32      -0.11942    -0.30494     0.19464    -0.29051     0.60091     0.34207
  33       0.41744    -0.32190    -0.24480    -0.37058    -0.03896     0.15176
  34      -0.41744    -0.32190    -0.24480     0.37058     0.03896     0.15176
  35      -0.09390     0.06272    -0.03097    -0.04062    -0.06817     0.08942
  36       0.53860    -0.36984     0.19110     0.25317     0.42103    -0.53047
  37      -0.34601    -0.05942    -0.23160    -0.16021    -0.02975     0.07171
  38       0.03770     0.32370    -0.15353    -0.17314    -0.22191     0.11417
  39       0.00000    -0.00000     0.00000     0.00000    -0.00000     0.00000
  40       0.09390     0.06272    -0.03098     0.04062     0.06817     0.08942
  41      -0.53860    -0.36984     0.19110    -0.25317    -0.42103    -0.53047
  42      -0.34601     0.05942     0.23160    -0.16021    -0.02975    -0.07171
  43       0.03770    -0.32370     0.15353    -0.17314    -0.22191    -0.11417
  44       0.00000     0.00000    -0.00000     0.00000    -0.00000    -0.00000
  45      -0.17461     0.56448    -0.20257    -0.22358    -0.43201     0.35463
  46       0.17461     0.56448    -0.20257     0.22358     0.43201     0.35463
  47       0.04200    -0.02017    -0.09958    -0.09036    -0.01784    -0.07086
  48      -0.23755     0.11012     0.61362     0.55823     0.11781     0.42376
  49      -0.12158    -0.22943     0.06748     0.14534     0.30433     0.03879
  50       0.08714     0.30539     0.22609     0.24841    -0.07891     0.03103
  51      -0.00000     0.00000    -0.00000    -0.00000     0.00000    -0.00000
  52      -0.04200    -0.02017    -0.09958     0.09036     0.01784    -0.07086
  53       0.23755     0.11012     0.61362    -0.55823    -0.11781     0.42376
  54      -0.12158     0.22943    -0.06748     0.14534     0.30433    -0.03879
  55       0.08714    -0.30539    -0.22609     0.24841    -0.07891    -0.03103
  56      -0.00000    -0.00000     0.00000    -0.00000     0.00000     0.00000
  57      -0.02840    -0.39060    -0.48669    -0.45163     0.08956    -0.24664
  58       0.02840    -0.39060    -0.48669     0.45163    -0.08956    -0.24664
  59       0.30333     0.24532    -0.30218    -0.34112    -0.34888    -0.24859
  60      -0.30333     0.24532    -0.30218     0.34112     0.34888    -0.24859

           49          50          51          52          53          54  
       ----------- ----------- ----------- ----------- ----------- -----------
   1       0.06585     0.03474    -0.06353     0.00185    -0.00116    -0.06665
   2      -0.38688    -0.21443     0.41870    -0.00219     0.00156     0.45172
   3      -0.09628    -0.04940     0.61555    -0.06261    -0.03853    -0.02833
   4      -0.15446    -0.34774    -0.13306    -0.55301     0.18519     0.22768
   5      -0.00000    -0.00000     0.00000     0.00000     0.00000     0.00000
   6      -0.06585     0.03474    -0.06353    -0.00185    -0.00116     0.06665
   7       0.38688    -0.21443     0.41870     0.00219     0.00156    -0.45172
   8      -0.09628     0.04940    -0.61555    -0.06261     0.03853    -0.02833
   9      -0.15446     0.34774     0.13306    -0.55301    -0.18519     0.22768
  10       0.00000     0.00000    -0.00000     0.00000     0.00000     0.00000
  11      -0.06260    -0.10892     0.00740    -0.10016    -0.00106    -0.04008
  12       0.37493     0.67812    -0.04799     0.65998     0.00093     0.26828
  13      -0.13650     0.13013     0.14836    -0.11180    -0.18974     0.71465
  14      -0.14081    -0.12652     0.45551     0.04372     0.53775     0.23795
  15       0.00000     0.00000    -0.00000    -0.00000     0.00000    -0.00000
  16       0.06260    -0.10892     0.00740     0.10016    -0.00106     0.04008
  17      -0.37493     0.67812    -0.04799    -0.65998     0.00093    -0.26828
  18      -0.13650    -0.13013    -0.14836    -0.11180     0.18974     0.71465
  19      -0.14081     0.12652    -0.45551     0.04372    -0.53775     0.23795
  20       0.00000    -0.00000    -0.00000     0.00000    -0.00000     0.00000
  21       0.06571     0.09807     0.05015    -0.03661     0.00414     0.08716
  22      -0.39556    -0.61275    -0.31873     0.25117    -0.01968    -0.58910
  23      -0.12523     0.19074     0.04174     0.48026    -0.38941     0.40060
  24      -0.15270    -0.10453     0.32052    -0.18599    -0.52004    -0.36547
  25      -0.00000     0.00000     0.00000    -0.00000     0.00000    -0.00000
  26      -0.06571     0.09807     0.05015     0.03661     0.00414    -0.08716
  27       0.39556    -0.61275    -0.31873    -0.25117    -0.01968     0.58910
  28      -0.12523    -0.19074    -0.04174     0.48026     0.38941     0.40060
  29      -0.15270     0.10453    -0.32052    -0.18599     0.52004    -0.36547
  30      -0.00000     0.00000    -0.00000    -0.00000     0.00000    -0.00000
  31      -0.09662    -0.17812    -0.27139    -0.33485    -0.46499    -0.10093
  32       0.09662    -0.17812    -0.27139     0.33485    -0.46499     0.10093
  33       0.45157     0.30831    -0.06260    -0.21985     0.53668     0.27689
  34      -0.45157     0.30831    -0.06260     0.21985     0.53668    -0.27689
  35       0.07665    -0.02959    -0.08085     0.02627     0.05214    -0.06066
  36      -0.45772     0.20589     0.51759    -0.18789    -0.34861     0.40709
  37      -0.10323    -0.06659    -0.00808    -0.04990    -0.15702     0.01144
  38       0.06612    -0.02026    -0.14664    -0.25674    -0.10589    -0.04066
  39      -0.00000    -0.00000     0.00000    -0.00000     0.00000    -0.00000
  40      -0.07665    -0.02959    -0.08085    -0.02627     0.05214     0.06066
  41       0.45772     0.20589     0.51759     0.18789    -0.34861    -0.40709
  42      -0.10323     0.06659     0.00808    -0.04990     0.15702     0.01144
  43       0.06612     0.02026     0.14664    -0.25674     0.10589    -0.04066
  44      -0.00000     0.00000    -0.00000    -0.00000    -0.00000    -0.00000
  45       0.31494    -0.06112    -0.31443    -0.14664     0.10766    -0.21315
  46      -0.31494    -0.06112    -0.31443     0.14664     0.10766     0.21315
  47      -0.11546    -0.06858     0.02261    -0.00720    -0.04635     0.00388
  48       0.71118     0.43234    -0.13782     0.05692     0.30818    -0.02146
  49       0.02526     0.40175    -0.10986    -0.47416    -0.24293     0.13143
  50       0.13800     0.13803     0.32151     0.00552    -0.07515     0.21233
  51       0.00000     0.00000    -0.00000     0.00000    -0.00000     0.00000
  52       0.11546    -0.06858     0.02261     0.00720    -0.04635    -0.00388
  53      -0.71118     0.43234    -0.13782    -0.05692     0.30818     0.02146
  54       0.02526    -0.40175     0.10986    -0.47416     0.24293     0.13143
  55       0.13800    -0.13803    -0.32151     0.00552     0.07515     0.21233
  56       0.00000    -0.00000     0.00000     0.00000     0.00000     0.00000
  57      -0.52167    -0.30439    -0.20598    -0.08063    -0.15758    -0.17645
  58       0.52167    -0.30439    -0.20598     0.08063    -0.15758     0.17645
  59      -0.33166    -0.50276     0.24071     0.35438     0.04059    -0.03344
  60       0.33166    -0.50276     0.24071    -0.35438     0.04059     0.03344

           55          56          57          58          59          60  
       ----------- ----------- ----------- ----------- ----------- -----------
   1       0.08535     0.01614     0.01745     0.01932     0.00504     0.04628
   2      -0.56770    -0.09656    -0.11031    -0.13416    -0.03336    -0.33765
   3       0.04542     0.33711     0.37531    -0.12831    -0.04753    -0.65519
   4       0.21728    -0.13116     0.14267    -0.45371    -0.69700     0.15531
   5       0.00000    -0.00000     0.00000     0.00000    -0.00000     0.00000
   6      -0.08535     0.01614     0.01745    -0.01932     0.00504    -0.04628
   7       0.56770    -0.09656    -0.11031     0.13416    -0.03336     0.33765
   8       0.04542    -0.33711    -0.37531    -0.12831     0.04753    -0.65519
   9       0.21728     0.13116    -0.14267    -0.45371     0.69700     0.15531
  10       0.00000    -0.00000    -0.00000     0.00000     0.00000     0.00000
  11       0.00205     0.02730    -0.01926    -0.04633    -0.00812    -0.05349
  12      -0.02749    -0.18840     0.13639     0.32991     0.05600     0.38109
  13      -0.02964    -0.40623     0.38632    -0.12847    -0.52184     0.24249
  14      -0.23119     0.23162     0.11558    -0.18368    -0.24056    -0.57099
  15      -0.00000     0.00000    -0.00000    -0.00000    -0.00000     0.00000
  16      -0.00205     0.02730    -0.01926     0.04633    -0.00812     0.05349
  17       0.02749    -0.18840     0.13639    -0.32991     0.05600    -0.38109
  18      -0.02964     0.40623    -0.38632    -0.12847     0.52184     0.24249
  19      -0.23119    -0.23162    -0.11558    -0.18368     0.24056    -0.57099
  20      -0.00000     0.00000     0.00000    -0.00000    -0.00000     0.00000
  21       0.04274    -0.03432     0.01495    -0.02180     0.00819     0.05779
  22      -0.27948     0.23187    -0.10712     0.15990    -0.05504    -0.41393
  23      -0.14662    -0.31834     0.44847     0.21059    -0.40293     0.39584
  24       0.32343     0.17750     0.01972    -0.04869     0.42889     0.50034
  25       0.00000     0.00000     0.00000     0.00000     0.00000    -0.00000
  26      -0.04274    -0.03432     0.01495     0.02180     0.00819    -0.05779
  27       0.27948     0.23187    -0.10712    -0.15990    -0.05504     0.41393
  28      -0.14662     0.31834    -0.44847     0.21059     0.40293     0.39584
  29       0.32343    -0.17750    -0.01972    -0.04869    -0.42889     0.50034
  30       0.00000    -0.00000    -0.00000     0.00000    -0.00000    -0.00000
  31       0.12594    -0.20326    -0.04578    -0.02785     0.00762     0.27166
  32      -0.12594    -0.20326    -0.04578     0.02785     0.00762    -0.27166
  33       0.02973    -0.06220    -0.20191    -0.10429    -0.03997    -0.28151
  34      -0.02973    -0.06220    -0.20191     0.10429    -0.03997     0.28151
  35      -0.02963    -0.04137     0.04380    -0.06335     0.02944    -0.01271
  36       0.21840     0.28324    -0.33429     0.47091    -0.22867     0.07800
  37       0.48300    -0.15592    -0.65748     0.46469    -0.32537    -0.34995
  38      -0.31483     0.54626    -0.08911     0.61165    -0.44379     0.02396
  39       0.00000     0.00000    -0.00000    -0.00000    -0.00000    -0.00000
  40       0.02963    -0.04137     0.04380     0.06335     0.02944     0.01271
  41      -0.21840     0.28324    -0.33429    -0.47091    -0.22867    -0.07800
  42       0.48300     0.15592     0.65748     0.46469     0.32537    -0.34995
  43      -0.31483    -0.54626     0.08911     0.61165     0.44379     0.02396
  44      -0.00000    -0.00000    -0.00000    -0.00000     0.00000    -0.00000
  45      -0.37567     0.31297     0.16850     0.17019    -0.16192     0.04994
  46       0.37567     0.31297     0.16850    -0.17019    -0.16192    -0.04994
  47       0.01985     0.03352    -0.04923     0.07410    -0.04436    -0.00897
  48      -0.13751    -0.23824     0.36031    -0.54799     0.33941     0.07556
  49      -0.23800     0.53945    -0.17393     0.53906    -0.32966     0.00362
  50       0.55173    -0.16478    -0.58841     0.39548    -0.26298    -0.21581
  51      -0.00000    -0.00000     0.00000     0.00000     0.00000     0.00000
  52      -0.01985     0.03352    -0.04923    -0.07410    -0.04436     0.00897
  53       0.13751    -0.23824     0.36031     0.54799     0.33941    -0.07556
  54      -0.23800    -0.53945     0.17393     0.53906     0.32966     0.00362
  55       0.55173     0.16478     0.58841     0.39548     0.26298    -0.21581
  56      -0.00000     0.00000    -0.00000     0.00000    -0.00000     0.00000
  57      -0.38492     0.29665     0.27618    -0.00421     0.03081     0.13971
  58       0.38492     0.29665     0.27618     0.00421     0.03081    -0.13971
  59       0.34964    -0.33247    -0.13320    -0.09051     0.04929    -0.06567
  60      -0.34964    -0.33247    -0.13320     0.09051     0.04929     0.06567

 center of mass
 --------------
 x =   0.00000000 y =   0.00000000 z =   0.00000000

 moments of inertia (a.u.)
 ------------------
         390.867533905255         -10.428546558486           0.000000000000
         -10.428546558486        2631.682846773438           0.000000000000
           0.000000000000           0.000000000000        3022.550380678693

     Multipole analysis of the density
     ---------------------------------

     L   x y z        total         alpha         beta         nuclear
     -   - - -        -----         -----         ----         -------
     0   0 0 0     -0.000000    -35.000000    -35.000000     70.000000

     1   1 0 0      0.000000      0.000000      0.000000      0.000000
     1   0 1 0      0.000000      0.000000      0.000000      0.000000
     1   0 0 1     -0.000000     -0.000000     -0.000000      0.000000

     2   2 0 0    -36.156301   -766.520036   -766.520036   1496.883771
     2   1 1 0     -0.057590     -5.757796     -5.757796     11.458002
     2   1 0 1      0.000000      0.000000      0.000000      0.000000
     2   0 2 0    -36.127017   -140.501209   -140.501209    244.875401
     2   0 1 1      0.000000      0.000000      0.000000      0.000000
     2   0 0 2    -43.564715    -21.782358    -21.782358      0.000000


 Parallel integral file used      16 records with       0 large values


 Task  times  cpu:       18.0s     wall:       18.1s
 Summary of allocated global arrays
-----------------------------------
  No active global arrays



                         GA Statistics for process    0
                         ------------------------------

       create   destroy   get      put      acc     scatter   gather  read&inc
calls:  122      122     2.58e+05 2726     1.77e+05    0        0        0     
number of processes/call 1.00e+00 1.00e+00 1.00e+00 0.00e+00 0.00e+00
bytes total:             2.96e+07 3.88e+06 1.47e+07 0.00e+00 0.00e+00 0.00e+00
bytes remote:            0.00e+00 0.00e+00 0.00e+00 0.00e+00 0.00e+00 0.00e+00
Max memory consumed for GA by this process: 1123200 bytes
MA_summarize_allocated_blocks: starting scan ...
MA_summarize_allocated_blocks: scan completed: 0 heap blocks, 0 stack blocks
MA usage statistics:

	allocation statistics:
					      heap	     stack
					      ----	     -----
	current number of blocks	         0	         0
	maximum number of blocks	        23	        46
	current total bytes		         0	         0
	maximum total bytes		  42889112	  22516152
	maximum total K-bytes		     42890	     22517
	maximum total M-bytes		        43	        23


                                NWChem Input Module
                                -------------------





                                     CITATION
                                     --------
                Please cite the following reference when publishing
                           results obtained with NWChem:

                 M. Valiev, E.J. Bylaska, N. Govind, K. Kowalski,
              T.P. Straatsma, H.J.J. van Dam, D. Wang, J. Nieplocha,
                        E. Apra, T.L. Windus, W.A. de Jong
                 "NWChem: a comprehensive and scalable open-source
                  solution for large scale molecular simulations"
                      Comput. Phys. Commun. 181, 1477 (2010)
                           doi:10.1016/j.cpc.2010.04.018

                              AUTHORS & CONTRIBUTORS
                              ----------------------
      E. J. Bylaska, W. A. de Jong, N. Govind, K. Kowalski, T. P. Straatsma,
     M. Valiev, H. J. J. van Dam, D. Wang, E. Apra, T. L. Windus, J. Hammond,
     J. Autschbach, P. Nichols, S. Hirata, M. T. Hackler, Y. Zhao, P.-D. Fan,
      R. J. Harrison, M. Dupuis, D. M. A. Smith, K. Glaesemann, J. Nieplocha,
      V. Tipparaju, M. Krishnan, A. Vazquez-Mayagoitia, L. Jensen, M. Swart,
      Q. Wu, T. Van Voorhis, A. A. Auer, M. Nooijen, L. D. Crosby, E. Brown,
             G. Cisneros, G. I. Fann, H. Fruchtl, J. Garza, K. Hirao,
        R. Kendall, J. A. Nichols, K. Tsemekhman, K. Wolinski, J. Anchell,
       D. Bernholdt, P. Borowski, T. Clark, D. Clerc, H. Dachsel, M. Deegan,
        K. Dyall, D. Elwood, E. Glendening, M. Gutowski, A. Hess, J. Jaffe,
        B. Johnson, J. Ju, R. Kobayashi, R. Kutteh, Z. Lin, R. Littlefield,
    X. Long, B. Meng, T. Nakajima, S. Niu, L. Pollack, M. Rosing, G. Sandrone,
       M. Stave, H. Taylor, G. Thomas, J. H. van Lenthe, A. Wong, Z. Zhang.

 Total times  cpu:       18.0s     wall:       18.1s
