20
 energy: -26.425939359008 gnorm: 0.088050967149 xtb: 6.6.1 (8d0f1dd)
C            0.27867948000000       -1.36683162000000        0.00000000000000
C            1.32303041000000       -0.44173575000000        0.00000000000000
C            1.04434506000000        0.92484978000000        0.00000000000000
C           -0.27867948000000        1.36683162000000        0.00000000000000
C           -1.32303041000000        0.44173575000000        0.00000000000000
C           -1.04434506000000       -0.92484978000000        0.00000000000000
H            2.36595443000000       -0.79037726000000        0.00000000000000
H            1.86746094000000        1.65407997000000        0.00000000000000
H           -2.36595443000000        0.79037726000000        0.00000000000000
H           -1.86746094000000       -1.65407997000000        0.00000000000000
C           -0.58659169000000        2.87589931000000        0.00000000000000
C            0.36350188000000        3.80076420000000        0.00000000000000
H           -1.65647768000000        3.12394312000000        0.00000000000000
H            0.14429560000000        4.87693235000000        0.00000000000000
H            1.43338788000000        3.55272039000000        0.00000000000000
C            0.58659169000000       -2.87589931000000        0.00000000000000
C           -0.36350188000000       -3.80076420000000        0.00000000000000
H            1.65647768000000       -3.12394312000000        0.00000000000000
H           -0.14429560000000       -4.87693235000000        0.00000000000000
H           -1.43338788000000       -3.55272039000000        0.00000000000000
20
 energy: -26.435622024348 gnorm: 0.046457706231 xtb: 6.6.1 (8d0f1dd)
C            0.26261058171874       -1.37841296716445       -0.00000000000000
C            1.30714542569508       -0.45726809051605        0.00000000000000
C            1.04655314120253        0.90248017110302        0.00000000000000
C           -0.26261058171874        1.37841296716445        0.00000000000000
C           -1.30714542569508        0.45726809051605       -0.00000000000000
C           -1.04655314120253       -0.90248017110302       -0.00000000000000
H            2.33633260539075       -0.80434875830303        0.00000000000000
H            1.87462276042581        1.60060291655056        0.00000000000000
H           -2.33633260539075        0.80434875830303       -0.00000000000000
H           -1.87462276042581       -1.60060291655056        0.00000000000000
C           -0.56264754133727        2.84222796876856        0.00000000000000
C            0.35500875626033        3.79662481181312       -0.00000000000000
H           -1.62210803243915        3.07997795195767        0.00000000000000
H            0.10537268637752        4.85066922056983       -0.00000000000000
H            1.41606349643639        3.58874294586153       -0.00000000000000
C            0.56264754133727       -2.84222796876856       -0.00000000000000
C           -0.35500875626033       -3.79662481181312        0.00000000000000
H            1.62210803243914       -3.07997795195767       -0.00000000000000
H           -0.10537268637752       -4.85066922056984        0.00000000000000
H           -1.41606349643639       -3.58874294586153       -0.00000000000000
20
 energy: -26.437976861981 gnorm: 0.007307873363 xtb: 6.6.1 (8d0f1dd)
C            0.24767392059844       -1.38999395256289        0.00000000000000
C            1.29628144926138       -0.46947620766332        0.00000000000000
C            1.05404352865195        0.88749361770016       -0.00000000000000
C           -0.24767392059844        1.38999395256289       -0.00000000000000
C           -1.29628144926138        0.46947620766332        0.00000000000000
C           -1.05404352865195       -0.88749361770016        0.00000000000000
H            2.31672344103557       -0.82127801564632        0.00000000000000
H            1.88951289704456        1.56652197072957       -0.00000000000000
H           -2.31672344103557        0.82127801564632        0.00000000000000
H           -1.88951289704456       -1.56652197072957        0.00000000000000
C           -0.54325752925723        2.81338464827384       -0.00000000000001
C            0.35003924644974        3.79530771369374        0.00000000000000
H           -1.59803102712513        3.05057788332183       -0.00000000000000
H            0.06388357347742        4.83324714515292        0.00000000000001
H            1.40977365790315        3.61370314898312        0.00000000000000
C            0.54325752925723       -2.81338464827384        0.00000000000000
C           -0.35003924644974       -3.79530771369373       -0.00000000000000
H            1.59803102712513       -3.05057788332183        0.00000000000000
H           -0.06388357347742       -4.83324714515292       -0.00000000000001
H           -1.40977365790315       -3.61370314898311        0.00000000000000
20
 energy: -26.438186765767 gnorm: 0.003339036083 xtb: 6.6.1 (8d0f1dd)
C            0.23878592617258       -1.39242611146622       -0.00000000000002
C            1.29287327967492       -0.47584454268548       -0.00000000000001
C            1.06128023987813        0.88235989235301        0.00000000000002
C           -0.23878592617259        1.39242611146622        0.00000000000003
C           -1.29287327967492        0.47584454268548        0.00000000000000
C           -1.06128023987813       -0.88235989235301       -0.00000000000002
H            2.31164119970797       -0.83690281441806       -0.00000000000000
H            1.90358977059799        1.55585191376412        0.00000000000003
H           -2.31164119970798        0.83690281441806        0.00000000000000
H           -1.90358977059800       -1.55585191376412       -0.00000000000002
C           -0.53717289441186        2.81665236974135        0.00000000000004
C            0.34717345468941        3.80833507184194       -0.00000000000001
H           -1.59415383908160        3.05230295901929        0.00000000000001
H            0.04260136796884        4.84187195039387       -0.00000000000004
H            1.41053197366175        3.63841480209863       -0.00000000000000
C            0.53717289441186       -2.81665236974135       -0.00000000000002
C           -0.34717345468941       -3.80833507184194        0.00000000000001
H            1.59415383908160       -3.05230295901929       -0.00000000000000
H           -0.04260136796885       -4.84187195039387        0.00000000000003
H           -1.41053197366175       -3.63841480209863       -0.00000000000001
20
 energy: -26.438237795138 gnorm: 0.001404355406 xtb: 6.6.1 (8d0f1dd)
C            0.23317655566341       -1.39341669122719        0.00000000000021
C            1.29007862583582       -0.47860087597726        0.00000000000008
C            1.06571548725220        0.88065124452509       -0.00000000000016
C           -0.23317655566341        1.39341669122719       -0.00000000000025
C           -1.29007862583582        0.47860087597726       -0.00000000000006
C           -1.06571548725220       -0.88065124452509        0.00000000000014
H            2.30696266098692       -0.84738216925394        0.00000000000002
H            1.91078841306170        1.55226215774977       -0.00000000000024
H           -2.30696266098692        0.84738216925394       -0.00000000000002
H           -1.91078841306171       -1.55226215774977        0.00000000000021
C           -0.53204179535257        2.81806737440479       -0.00000000000032
C            0.34611145715464        3.81496651381371        0.00000000000016
H           -1.58996326918276        3.05402136964724       -0.00000000000011
H            0.02806654714788        4.84406514407969        0.00000000000035
H            1.41085763982851        3.65295758451582        0.00000000000004
C            0.53204179535257       -2.81806737440479        0.00000000000021
C           -0.34611145715464       -3.81496651381371       -0.00000000000010
H            1.58996326918275       -3.05402136964724        0.00000000000005
H           -0.02806654714788       -4.84406514407969       -0.00000000000023
H           -1.41085763982851       -3.65295758451582        0.00000000000004
20
 energy: -26.438242468165 gnorm: 0.000596915040 xtb: 6.6.1 (8d0f1dd)
C            0.23214923366237       -1.39278258168054       -0.00000000000218
C            1.28957114305719       -0.47878687865945       -0.00000000000068
C            1.06669386943097        0.88062922919947        0.00000000000173
C           -0.23214923366238        1.39278258168054        0.00000000000271
C           -1.28957114305719        0.47878687865945        0.00000000000080
C           -1.06669386943097       -0.88062922919947       -0.00000000000154
H            2.30536392730251       -0.85043207440805       -0.00000000000009
H            1.91122901363026        1.55264623305998        0.00000000000254
H           -2.30536392730251        0.85043207440805        0.00000000000022
H           -1.91122901363027       -1.55264623305998       -0.00000000000238
C           -0.53042461283360        2.81781528995464        0.00000000000326
C            0.34639804353399        3.81557170591418       -0.00000000000198
H           -1.58834765134830        3.05388350630598        0.00000000000131
H            0.02454616386428        4.84276516218291       -0.00000000000345
H            1.41113387618861        3.65666064903447       -0.00000000000052
C            0.53042461283360       -2.81781528995464       -0.00000000000226
C           -0.34639804353399       -3.81557170591417        0.00000000000114
H            1.58834765134829       -3.05388350630598       -0.00000000000056
H           -0.02454616386429       -4.84276516218291        0.00000000000229
H           -1.41113387618862       -3.65666064903446       -0.00000000000036
