20
 energy: -26.438242468348 gnorm: 0.000596789979 xtb: 6.6.1 (8d0f1dd)
C            0.23214923366237       -1.39278258168054       -0.00000000000218
C            1.28957114305719       -0.47878687865945       -0.00000000000068
C            1.06669386943097        0.88062922919947        0.00000000000173
C           -0.23214923366238        1.39278258168054        0.00000000000271
C           -1.28957114305719        0.47878687865945        0.00000000000080
C           -1.06669386943097       -0.88062922919947       -0.00000000000154
H            2.30536392730251       -0.85043207440805       -0.00000000000009
H            1.91122901363026        1.55264623305998        0.00000000000254
H           -2.30536392730251        0.85043207440805        0.00000000000022
H           -1.91122901363027       -1.55264623305998       -0.00000000000238
C           -0.53042461283360        2.81781528995464        0.00000000000326
C            0.34639804353399        3.81557170591418       -0.00000000000198
H           -1.58834765134830        3.05388350630598        0.00000000000131
H            0.02454616386428        4.84276516218291       -0.00000000000345
H            1.41113387618861        3.65666064903447       -0.00000000000052
C            0.53042461283360       -2.81781528995464       -0.00000000000226
C           -0.34639804353399       -3.81557170591417        0.00000000000114
H            1.58834765134829       -3.05388350630598       -0.00000000000056
H           -0.02454616386429       -4.84276516218291        0.00000000000229
H           -1.41113387618862       -3.65666064903446       -0.00000000000036
