----- GAMESS execution script 'rungms' -----
This job is running on host fwnc7111
under operating system Linux at Thu Nov 29 10:43:41 CET 2012
Available scratch disk space (Kbyte units) at beginning of the job is
Filesystem           1K-blocks      Used Available Use% Mounted on
/dev/mapper/vg1-home 309637120 242361164  64131316  80% /home
GAMESS temporary binary files will be written to /home/kml
GAMESS supplementary output files will be written to /home/kml/tmp/cclib-gamess2012
Copying input file C_bigbasis.inp to your run's scratch directory...

 Distributed Data Interface kickoff program.
 Initiating 1 compute processes on 1 nodes to run the following command:
 /usr/local/src/gamess-2012.05.01.r1/gamess.fwnc7111.x C_bigbasis 

          ******************************************************
          *         GAMESS VERSION =  1 MAY 2012 (R1)          *
          *             FROM IOWA STATE UNIVERSITY             *
          * M.W.SCHMIDT, K.K.BALDRIDGE, J.A.BOATZ, S.T.ELBERT, *
          *   M.S.GORDON, J.H.JENSEN, S.KOSEKI, N.MATSUNAGA,   *
          *          K.A.NGUYEN, S.J.SU, T.L.WINDUS,           *
          *       TOGETHER WITH M.DUPUIS, J.A.MONTGOMERY       *
          *         J.COMPUT.CHEM.  14, 1347-1363(1993)        *
          **************** 64 BIT LINUX VERSION ****************

  SINCE 1993, STUDENTS AND POSTDOCS WORKING AT IOWA STATE UNIVERSITY
  AND ALSO IN THEIR VARIOUS JOBS AFTER LEAVING ISU HAVE MADE IMPORTANT
  CONTRIBUTIONS TO THE CODE:
     IVANA ADAMOVIC, CHRISTINE AIKENS, YURI ALEXEEV, POOJA ARORA,
     ANDREY ASADCHEV, ROB BELL, PRADIPTA BANDYOPADHYAY, JONATHAN BENTZ,
     BRETT BODE, GALINA CHABAN, WEI CHEN, CHEOL HO CHOI, PAUL DAY,
     ALBERT DEFUSCO, TIM DUDLEY, DMITRI FEDOROV, GRAHAM FLETCHER,
     MARK FREITAG, KURT GLAESEMANN, DAN KEMP, GRANT MERRILL,
     NORIYUKI MINEZAWA, JONATHAN MULLIN, TAKESHI NAGATA,
     SEAN NEDD, HEATHER NETZLOFF, BOSILJKA NJEGIC, RYAN OLSON, MIKE PAK,
     JIM SHOEMAKER, LYUDMILA SLIPCHENKO, SAROM SOK, JIE SONG,
     TETSUYA TAKETSUGU, SIMON WEBB, SOOHAENG YOO, FEDERICO ZAHARIEV

  ADDITIONAL CODE HAS BEEN PROVIDED BY COLLABORATORS IN OTHER GROUPS:
     IOWA STATE UNIVERSITY:
          JOE IVANIC, LAIMUTIS BYTAUTAS, KLAUS RUEDENBERG
     UNIVERSITY OF TOKYO: KIMIHIKO HIRAO, TAKAHITO NAKAJIMA,
          TAKAO TSUNEDA, MUNEAKI KAMIYA, SUSUMU YANAGISAWA,
          KIYOSHI YAGI, MAHITO CHIBA, SEIKEN TOKURA, NAOAKI KAWAKAMI
     UNIVERSITY OF AARHUS: FRANK JENSEN
     UNIVERSITY OF IOWA: VISVALDAS KAIRYS, HUI LI
     NATIONAL INST. OF STANDARDS AND TECHNOLOGY: WALT STEVENS, DAVID GARMER
     UNIVERSITY OF PISA: BENEDETTA MENNUCCI, JACOPO TOMASI
     UNIVERSITY OF MEMPHIS: HENRY KURTZ, PRAKASHAN KORAMBATH
     UNIVERSITY OF ALBERTA: TOBY ZENG, MARIUSZ KLOBUKOWSKI
     UNIVERSITY OF NEW ENGLAND: MARK SPACKMAN
     MIE UNIVERSITY: HIROAKI UMEDA
     MICHIGAN STATE UNIVERSITY:
          KAROL KOWALSKI, MARTA WLOCH, JEFFREY GOUR, JESSE LUTZ, PIOTR PIECUCH
     UNIVERSITY OF SILESIA: MONIKA MUSIAL, STANISLAW KUCHARSKI
     FACULTES UNIVERSITAIRES NOTRE-DAME DE LA PAIX:
          OLIVIER QUINET, BENOIT CHAMPAGNE
     UNIVERSITY OF CALIFORNIA - SANTA BARBARA: BERNARD KIRTMAN
     INSTITUTE FOR MOLECULAR SCIENCE:
          KAZUYA ISHIMURA, MICHIO KATOUDA, AND SHIGERU NAGASE
     UNIVERSITY OF NOTRE DAME: DAN CHIPMAN
     KYUSHU UNIVERSITY:
          HARUYUKI NAKANO,
          FENG LONG GU, JACEK KORCHOWIEC, MARCIN MAKOWSKI, AND YURIKO AOKI,
          HIROTOSHI MORI AND EISAKU MIYOSHI
     PENNSYLVANIA STATE UNIVERSITY:
          TZVETELIN IORDANOV, CHET SWALINA, JONATHAN SKONE,
          SHARON HAMMES-SCHIFFER
     WASEDA UNIVERSITY:
          MASATO KOBAYASHI, TOMOKO AKAMA, TSUGUKI TOUMA,
          TAKESHI YOSHIKAWA, YASUHIRO IKABATA, HIROMI NAKAI
     UNIVERSITY OF NEBRASKA:
          PEIFENG SU, DEJUN SI, NANDUN THELLAMUREGE, YALI WANG, HUI LI
     UNIVERSITY OF ZURICH:
          ROBERTO PEVERATI, KIM BALDRIDGE
     N. COPERNICUS UNIVERSITY AND JACKSON STATE UNIVERSITY:
          MARIA BARYSZ

 EXECUTION OF GAMESS BEGUN Thu Nov 29 10:43:41 2012

            ECHO OF THE FIRST FEW INPUT CARDS -
 INPUT CARD> $CONTRL COORD=PRINAXIS UNITS=ANGS                                              
 INPUT CARD>         SCFTYP=RHF RUNTYP=ENERGY ISPHER=1 NPRINT=3 $END                        
 INPUT CARD> $BASIS  GBASIS=ACCQC $END                                                      
 INPUT CARD> $GUESS  GUESS=HUCKEL $END                                                      
 INPUT CARD> $DATA                                                                          
 INPUT CARD>c atom                                                                          
 INPUT CARD>dnh  2                                                                          
 INPUT CARD>                                                                                
 INPUT CARD> C           6.0  -1.4152533224   0.2302217854   0.0000000000                   
 INPUT CARD> $END                                                                           
    1000000 WORDS OF MEMORY AVAILABLE

     BASIS OPTIONS
     -------------
     GBASIS=ACCQC        IGAUSS=       0      POLAR=NONE    
     NDFUNC=       0     NFFUNC=       0     DIFFSP=       F
     NPFUNC=       0      DIFFS=       F     BASNAM=        


     RUN TITLE
     ---------
 c atom                                                                          

 THE POINT GROUP OF THE MOLECULE IS DNH     
 THE ORDER OF THE PRINCIPAL AXIS IS     2

 THE MOMENTS OF INERTIA ARE (AMU-ANGSTROM**2)
 IXX=     0.000   IYY=     0.000   IZZ=     0.000

 ATOM      ATOMIC                      COORDINATES (BOHR)
           CHARGE         X                   Y                   Z
 C           6.0     0.0000000000        0.0000000000        0.0000000000

          INTERNUCLEAR DISTANCES (ANGS.)
          ------------------------------

                1 C     

   1 C       0.0000000  

  * ... LESS THAN  3.000


     ATOMIC BASIS SET
     ----------------
 THE CONTRACTED PRIMITIVE FUNCTIONS HAVE BEEN UNNORMALIZED
 THE CONTRACTED BASIS FUNCTIONS ARE NOW NORMALIZED TO UNITY

  SHELL TYPE  PRIMITIVE        EXPONENT          CONTRACTION COEFFICIENT(S)

 C         

      1   S       1         33980.0000000    0.000091634546
      1   S       2          5089.0000000    0.000708909013
      1   S       3          1157.0000000    0.003718751399
      1   S       4           326.6000000    0.015467105736
      1   S       5           106.1000000    0.053298075489
      1   S       6            38.1100000    0.148068335205
      1   S       7            14.7500000    0.307762174037
      1   S       8             6.0350000    0.402129644542
      1   S       9             2.5300000    0.218564503067

      2   S      10         33980.0000000   -0.000055710360
      2   S      11          5089.0000000   -0.000442750757
      2   S      12          1157.0000000   -0.002301717514
      2   S      13           326.6000000   -0.009746380913
      2   S      14           106.1000000   -0.033754614039
      2   S      15            38.1100000   -0.100161363410
      2   S      16            14.7500000   -0.226280822554
      2   S      17             6.0350000   -0.414875052487
      2   S      18             2.5300000   -0.346046368509

      3   S      19             0.7355000    1.000000000000

      4   S      20             0.2905000    1.000000000000

      5   S      21             0.1111000    1.000000000000

      6   P      22            34.5100000    0.031687855209
      6   P      23             7.9150000    0.212894307256
      6   P      24             2.3680000    0.839586752016

      7   P      25             0.8132000    1.000000000000

      8   P      26             0.2890000    1.000000000000

      9   P      27             0.1007000    1.000000000000

     10   D      28             1.8480000    1.000000000000

     11   D      29             0.6490000    1.000000000000

     12   D      30             0.2280000    1.000000000000

     13   F      31             1.4190000    1.000000000000

     14   F      32             0.4850000    1.000000000000

     15   G      33             1.0110000    1.000000000000

     16   S      34             7.2160000    1.000000000000

     17   S      35            19.5700000    1.000000000000

     18   S      36            53.0730000    1.000000000000

     19   P      37             8.1820000    1.000000000000

     20   P      38            24.1860000    1.000000000000

     21   P      39            71.4940000    1.000000000000

     22   D      40             8.6560000    1.000000000000

     23   D      41            33.2130000    1.000000000000

     24   F      42            24.6940000    1.000000000000

     25   S      43             0.0414500    1.000000000000

     26   P      44             0.0321800    1.000000000000

     27   D      45             0.0766000    1.000000000000

     28   F      46             0.1870000    1.000000000000

     29   G      47             0.4240000    1.000000000000

 TOTAL NUMBER OF BASIS SET SHELLS             =   29
 NUMBER OF CARTESIAN GAUSSIAN BASIS FUNCTIONS =  139
 NOTE: THIS RUN WILL RESTRICT THE MO VARIATION SPACE TO SPHERICAL HARMONICS.
 THE NUMBER OF ORBITALS KEPT IN THE VARIATIONAL SPACE WILL BE PRINTED LATER.
 NUMBER OF ELECTRONS                          =    6
 CHARGE OF MOLECULE                           =    0
 SPIN MULTIPLICITY                            =    1
 NUMBER OF OCCUPIED ORBITALS (ALPHA)          =    3
 NUMBER OF OCCUPIED ORBITALS (BETA )          =    3
 TOTAL NUMBER OF ATOMS                        =    1
 THE NUCLEAR REPULSION ENERGY IS        0.0000000000

 THIS MOLECULE IS RECOGNIZED AS BEING LINEAR,
 ORBITAL LZ DEGENERACY TOLERANCE ETOLLZ= 1.00E-06

     $CONTRL OPTIONS
     ---------------
 SCFTYP=RHF          RUNTYP=ENERGY       EXETYP=RUN     
 MPLEVL=       0     CITYP =NONE         CCTYP =NONE         VBTYP =NONE    
 DFTTYP=NONE         TDDFT =NONE    
 MULT  =       1     ICHARG=       0     NZVAR =       0     COORD =PRINAXIS
 PP    =NONE         RELWFN=NONE         LOCAL =NONE         NUMGRD=       F
 ISPHER=       1     NOSYM =       0     MAXIT =      30     UNITS =ANGS    
 PLTORB=       F     MOLPLT=       F     AIMPAC=       F     FRIEND=        
 NPRINT=       3     IREST =       0     GEOM  =INPUT   
 NORMF =       0     NORMP =       0     ITOL  =      20     ICUT  =       9
 INTTYP=BEST         GRDTYP=BEST         QMTTOL= 1.0E-06

     $SYSTEM OPTIONS
     ---------------
  REPLICATED MEMORY=     1000000 WORDS (ON EVERY NODE).
 DISTRIBUTED MEMDDI=           0 MILLION WORDS IN AGGREGATE,
 MEMDDI DISTRIBUTED OVER   1 PROCESSORS IS           0 WORDS/PROCESSOR.
 TOTAL MEMORY REQUESTED ON EACH PROCESSOR=     1000000 WORDS.
 TIMLIM=      525600.00 MINUTES, OR     365.0 DAYS.
 PARALL= F  BALTYP=  DLB     KDIAG=    0  COREFL= F
 MXSEQ2=     300 MXSEQ3=     150

          ----------------
          PROPERTIES INPUT
          ----------------

     MOMENTS            FIELD           POTENTIAL          DENSITY
 IEMOM =       1   IEFLD =       0   IEPOT =       0   IEDEN =       0
 WHERE =COMASS     WHERE =NUCLEI     WHERE =NUCLEI     WHERE =NUCLEI  
 OUTPUT=BOTH       OUTPUT=BOTH       OUTPUT=BOTH       OUTPUT=BOTH    
 IEMINT=       0   IEFINT=       0                     IEDINT=       0
                                                       MORB  =       0
          EXTRAPOLATION IN EFFECT
          SOSCF IN EFFECT
 ORBITAL PRINTING OPTION: NPREO=     1   139     2     1

     -------------------------------
     INTEGRAL TRANSFORMATION OPTIONS
     -------------------------------
     NWORD  =            0
     CUTOFF = 1.0E-09     MPTRAN =       0
     DIRTRF =       F     AOINTS =DUP     

          ----------------------
          INTEGRAL INPUT OPTIONS
          ----------------------
 NOPK  =       1 NORDER=       0 SCHWRZ=       F

     ------------------------------------------
     THE POINT GROUP IS DNH, NAXIS= 2, ORDER= 8
     ------------------------------------------

 -- VARIATIONAL SPACE WILL BE RESTRICTED TO PURE SPHERICAL HARMONICS ONLY --
 AFTER EXCLUDING CONTAMINANT COMBINATIONS FROM THE CARTESIAN GAUSSIAN BASIS
 SET, THE NUMBER OF SPHERICAL HARMONICS KEPT IN THE VARIATION SPACE IS  109

     DIMENSIONS OF THE SYMMETRY SUBSPACES ARE
 AG  =   27     AU  =    4     B3U =   16     B3G =   10     B1G =   10
 B1U =   16     B2U =   16     B2G =   10

 ..... DONE SETTING UP THE RUN .....
 STEP CPU TIME =     0.01 TOTAL CPU TIME =        0.0 (    0.0 MIN)
 TOTAL WALL CLOCK TIME=        0.0 SECONDS, CPU UTILIZATION IS  50.00%

          ********************
          1 ELECTRON INTEGRALS
          ********************
 OVERLAP MATRIX

                      1          2          3          4          5

    1  C  1  S    1.000000
    2  C  1  S   -0.990409   1.000000
    3  C  1  S    0.474885  -0.547572   1.000000
    4  C  1  S    0.269692  -0.317594   0.855304   1.000000
    5  C  1  S    0.139145  -0.165443   0.554945   0.846252   1.000000
    6  C  1  X   -0.000000   0.000000  -0.000000  -0.000000   0.000000
    7  C  1  Y    0.000000   0.000000   0.000000   0.000000   0.000000
    8  C  1  Z    0.000000   0.000000   0.000000   0.000000   0.000000
    9  C  1  X   -0.000000   0.000000  -0.000000   0.000000  -0.000000
   10  C  1  Y    0.000000   0.000000   0.000000   0.000000   0.000000
   11  C  1  Z    0.000000   0.000000   0.000000   0.000000   0.000000
   12  C  1  X   -0.000000   0.000000   0.000000   0.000000   0.000000
   13  C  1  Y    0.000000   0.000000   0.000000   0.000000   0.000000
   14  C  1  Z    0.000000   0.000000   0.000000   0.000000   0.000000
   15  C  1  X    0.000000  -0.000000  -0.000000  -0.000000   0.000000
   16  C  1  Y    0.000000   0.000000   0.000000   0.000000   0.000000
   17  C  1  Z    0.000000   0.000000   0.000000   0.000000   0.000000
   18  C  1 XX    0.211523  -0.269239   0.708204   0.566017   0.342678
   19  C  1 YY    0.211523  -0.269239   0.708204   0.566017   0.342678
   20  C  1 ZZ    0.211523  -0.269239   0.708204   0.566017   0.342678
   21  C  1 XY    0.000000   0.000000   0.000000   0.000000   0.000000
   22  C  1 XZ    0.000000   0.000000   0.000000   0.000000   0.000000
   23  C  1 YZ    0.000000   0.000000   0.000000   0.000000   0.000000
   24  C  1 XX    0.062051  -0.083315   0.539694   0.708860   0.585533
   25  C  1 YY    0.062051  -0.083315   0.539694   0.708860   0.585533
   26  C  1 ZZ    0.062051  -0.083315   0.539694   0.708860   0.585533
   27  C  1 XY    0.000000   0.000000   0.000000   0.000000   0.000000
   28  C  1 XZ    0.000000   0.000000   0.000000   0.000000   0.000000
   29  C  1 YZ    0.000000   0.000000   0.000000   0.000000   0.000000
   30  C  1 XX    0.013124  -0.018026   0.214145   0.502213   0.706100
   31  C  1 YY    0.013124  -0.018026   0.214145   0.502213   0.706100
   32  C  1 ZZ    0.013124  -0.018026   0.214145   0.502213   0.706100
   33  C  1 XY    0.000000   0.000000   0.000000   0.000000   0.000000
   34  C  1 XZ    0.000000   0.000000   0.000000   0.000000   0.000000
   35  C  1 YZ    0.000000   0.000000   0.000000   0.000000   0.000000
   36  C  1 XXX   0.000000   0.000000   0.000000   0.000000   0.000000
   37  C  1 YYY   0.000000   0.000000   0.000000   0.000000   0.000000
   38  C  1 ZZZ   0.000000   0.000000   0.000000   0.000000   0.000000
   39  C  1 XXY   0.000000   0.000000   0.000000   0.000000   0.000000
   40  C  1 XXZ   0.000000   0.000000   0.000000   0.000000   0.000000
   41  C  1 YYX   0.000000  -0.000000   0.000000   0.000000   0.000000
   42  C  1 YYZ   0.000000   0.000000   0.000000   0.000000   0.000000
   43  C  1 ZZX   0.000000  -0.000000   0.000000   0.000000   0.000000
   44  C  1 ZZY   0.000000   0.000000   0.000000   0.000000   0.000000
   45  C  1 XYZ   0.000000   0.000000   0.000000   0.000000   0.000000
   46  C  1 XXX   0.000000   0.000000   0.000000   0.000000   0.000000
   47  C  1 YYY   0.000000   0.000000   0.000000   0.000000   0.000000
   48  C  1 ZZZ   0.000000   0.000000   0.000000   0.000000   0.000000
   49  C  1 XXY   0.000000   0.000000   0.000000   0.000000   0.000000
   50  C  1 XXZ   0.000000   0.000000   0.000000   0.000000   0.000000
   51  C  1 YYX   0.000000  -0.000000   0.000000  -0.000000   0.000000
   52  C  1 YYZ   0.000000   0.000000   0.000000   0.000000   0.000000
   53  C  1 ZZX   0.000000  -0.000000   0.000000  -0.000000   0.000000
   54  C  1 ZZY   0.000000   0.000000   0.000000   0.000000   0.000000
   55  C  1 XYZ   0.000000   0.000000   0.000000   0.000000   0.000000
   56  C  1XXXX   0.024135  -0.034622   0.385074   0.537035   0.438907
   57  C  1YYYY   0.024135  -0.034622   0.385074   0.537035   0.438907
   58  C  1ZZZZ   0.024135  -0.034622   0.385074   0.537035   0.438907
   59  C  1XXXY   0.000000   0.000000   0.000000   0.000000   0.000000
   60  C  1XXXZ   0.000000   0.000000   0.000000   0.000000   0.000000
   61  C  1YYYX   0.000000   0.000000   0.000000   0.000000   0.000000
   62  C  1YYYZ   0.000000   0.000000   0.000000   0.000000   0.000000
   63  C  1ZZZX   0.000000   0.000000   0.000000   0.000000   0.000000
   64  C  1ZZZY   0.000000   0.000000   0.000000   0.000000   0.000000
   65  C  1XXYY   0.027479  -0.039419   0.438426   0.611441   0.499717
   66  C  1XXZZ   0.027479  -0.039419   0.438426   0.611441   0.499717
   67  C  1YYZZ   0.027479  -0.039419   0.438426   0.611441   0.499717
   68  C  1XXYZ   0.000000   0.000000   0.000000   0.000000   0.000000
   69  C  1YYXZ   0.000000   0.000000   0.000000   0.000000   0.000000
   70  C  1ZZXY   0.000000   0.000000   0.000000   0.000000   0.000000
   71  C  1  S    0.972915  -0.978424   0.441094   0.239591   0.120824
   72  C  1  S    0.903487  -0.839757   0.228431   0.117656   0.058003
   73  C  1  S    0.682795  -0.593511   0.111908   0.056454   0.027594
   74  C  1  X   -0.000000   0.000000   0.000000   0.000000  -0.000000
   75  C  1  Y    0.000000   0.000000   0.000000   0.000000   0.000000
   76  C  1  Z    0.000000   0.000000   0.000000   0.000000   0.000000
   77  C  1  X   -0.000000   0.000000   0.000000  -0.000000  -0.000000
   78  C  1  Y    0.000000   0.000000   0.000000   0.000000   0.000000
   79  C  1  Z    0.000000   0.000000   0.000000   0.000000   0.000000
   80  C  1  X    0.000000  -0.000000   0.000000   0.000000   0.000000
   81  C  1  Y    0.000000   0.000000   0.000000   0.000000   0.000000
   82  C  1  Z    0.000000   0.000000   0.000000   0.000000   0.000000
   83  C  1 XX    0.564717  -0.619657   0.419198   0.235801   0.120633
   84  C  1 YY    0.564717  -0.619657   0.419198   0.235801   0.120633
   85  C  1 ZZ    0.564717  -0.619657   0.419198   0.235801   0.120633
   86  C  1 XY    0.000000   0.000000   0.000000   0.000000   0.000000
   87  C  1 XZ    0.000000   0.000000   0.000000   0.000000   0.000000
   88  C  1 YZ    0.000000   0.000000   0.000000   0.000000   0.000000
   89  C  1 XX    0.636760  -0.606692   0.177496   0.091398   0.045050
   90  C  1 YY    0.636760  -0.606692   0.177496   0.091398   0.045050
   91  C  1 ZZ    0.636760  -0.606692   0.177496   0.091398   0.045050
   92  C  1 XY    0.000000   0.000000   0.000000   0.000000   0.000000
   93  C  1 XZ    0.000000   0.000000   0.000000   0.000000   0.000000
   94  C  1 YZ    0.000000   0.000000   0.000000   0.000000   0.000000
   95  C  1 XXX   0.000000   0.000000   0.000000   0.000000   0.000000
   96  C  1 YYY   0.000000   0.000000   0.000000   0.000000   0.000000
   97  C  1 ZZZ   0.000000   0.000000   0.000000   0.000000   0.000000
   98  C  1 XXY   0.000000   0.000000   0.000000   0.000000   0.000000
   99  C  1 XXZ   0.000000   0.000000   0.000000   0.000000   0.000000
  100  C  1 YYX  -0.000000  -0.000000   0.000000   0.000000  -0.000000
  101  C  1 YYZ   0.000000   0.000000   0.000000   0.000000   0.000000
  102  C  1 ZZX  -0.000000  -0.000000   0.000000   0.000000  -0.000000
  103  C  1 ZZY   0.000000   0.000000   0.000000   0.000000   0.000000
  104  C  1 XYZ   0.000000   0.000000   0.000000   0.000000   0.000000
  105  C  1  S    0.068047  -0.081226   0.301325   0.537575   0.839181
  106  C  1  X   -0.000000   0.000000   0.000000   0.000000  -0.000000
  107  C  1  Y    0.000000   0.000000   0.000000   0.000000   0.000000
  108  C  1  Z    0.000000   0.000000   0.000000   0.000000   0.000000
  109  C  1 XX    0.002176  -0.003015   0.048677   0.176528   0.459240
  110  C  1 YY    0.002176  -0.003015   0.048677   0.176528   0.459240
  111  C  1 ZZ    0.002176  -0.003015   0.048677   0.176528   0.459240
  112  C  1 XY    0.000000   0.000000   0.000000   0.000000   0.000000
  113  C  1 XZ    0.000000   0.000000   0.000000   0.000000   0.000000
  114  C  1 YZ    0.000000   0.000000   0.000000   0.000000   0.000000
  115  C  1 XXX   0.000000   0.000000   0.000000   0.000000   0.000000
  116  C  1 YYY   0.000000   0.000000   0.000000   0.000000   0.000000
  117  C  1 ZZZ   0.000000   0.000000   0.000000   0.000000   0.000000
  118  C  1 XXY   0.000000   0.000000   0.000000   0.000000   0.000000
  119  C  1 XXZ   0.000000   0.000000   0.000000   0.000000   0.000000
  120  C  1 YYX   0.000000  -0.000000   0.000000   0.000000  -0.000000
  121  C  1 YYZ   0.000000   0.000000   0.000000   0.000000   0.000000
  122  C  1 ZZX   0.000000  -0.000000   0.000000   0.000000  -0.000000
  123  C  1 ZZY   0.000000   0.000000   0.000000   0.000000   0.000000
  124  C  1 XYZ   0.000000   0.000000   0.000000   0.000000   0.000000
  125  C  1XXXX   0.003859  -0.005673   0.148039   0.401550   0.537218
  126  C  1YYYY   0.003859  -0.005673   0.148039   0.401550   0.537218
  127  C  1ZZZZ   0.003859  -0.005673   0.148039   0.401550   0.537218
  128  C  1XXXY   0.000000   0.000000   0.000000   0.000000   0.000000
  129  C  1XXXZ   0.000000   0.000000   0.000000   0.000000   0.000000
  130  C  1YYYX   0.000000   0.000000   0.000000   0.000000   0.000000
  131  C  1YYYZ   0.000000   0.000000   0.000000   0.000000   0.000000
  132  C  1ZZZX   0.000000   0.000000   0.000000   0.000000   0.000000
  133  C  1ZZZY   0.000000   0.000000   0.000000   0.000000   0.000000
  134  C  1XXYY   0.004394  -0.006459   0.168550   0.457185   0.611650
  135  C  1XXZZ   0.004394  -0.006459   0.168550   0.457185   0.611650
  136  C  1YYZZ   0.004394  -0.006459   0.168550   0.457185   0.611650
  137  C  1XXYZ   0.000000   0.000000   0.000000   0.000000   0.000000
  138  C  1YYXZ   0.000000   0.000000   0.000000   0.000000   0.000000
  139  C  1ZZXY   0.000000   0.000000   0.000000   0.000000   0.000000

                      6          7          8          9         10

    6  C  1  X    1.000000
    7  C  1  Y    0.000000   1.000000
    8  C  1  Z    0.000000   0.000000   1.000000
    9  C  1  X    0.653299   0.000000   0.000000   1.000000
   10  C  1  Y    0.000000   0.653299   0.000000   0.000000   1.000000
   11  C  1  Z    0.000000   0.000000   0.653299   0.000000   0.000000
   12  C  1  X    0.274917   0.000000   0.000000   0.725760   0.000000
   13  C  1  Y    0.000000   0.274917   0.000000   0.000000   0.725760
   14  C  1  Z    0.000000   0.000000   0.274917   0.000000   0.000000
   15  C  1  X    0.087755   0.000000   0.000000   0.310357   0.000000
   16  C  1  Y    0.000000   0.087755   0.000000   0.000000   0.310357
   17  C  1  Z    0.000000   0.000000   0.087755   0.000000   0.000000
   18  C  1 XX    0.000000   0.000000   0.000000   0.000000   0.000000
   19  C  1 YY    0.000000   0.000000   0.000000   0.000000   0.000000
   20  C  1 ZZ    0.000000   0.000000   0.000000   0.000000   0.000000
   21  C  1 XY    0.000000   0.000000   0.000000   0.000000   0.000000
   22  C  1 XZ    0.000000   0.000000   0.000000   0.000000   0.000000
   23  C  1 YZ    0.000000   0.000000   0.000000   0.000000   0.000000
   24  C  1 XX    0.000000   0.000000   0.000000   0.000000   0.000000
   25  C  1 YY    0.000000   0.000000   0.000000   0.000000   0.000000
   26  C  1 ZZ    0.000000   0.000000   0.000000   0.000000   0.000000
   27  C  1 XY    0.000000   0.000000   0.000000   0.000000   0.000000
   28  C  1 XZ    0.000000   0.000000   0.000000   0.000000   0.000000
   29  C  1 YZ    0.000000   0.000000   0.000000   0.000000   0.000000
   30  C  1 XX    0.000000   0.000000   0.000000   0.000000   0.000000
   31  C  1 YY   -0.000000   0.000000   0.000000   0.000000   0.000000
   32  C  1 ZZ   -0.000000   0.000000   0.000000   0.000000   0.000000
   33  C  1 XY    0.000000  -0.000000   0.000000   0.000000   0.000000
   34  C  1 XZ    0.000000   0.000000  -0.000000   0.000000   0.000000
   35  C  1 YZ    0.000000   0.000000   0.000000   0.000000   0.000000
   36  C  1 XXX   0.471511   0.000000   0.000000   0.894998   0.000000
   37  C  1 YYY   0.000000   0.471511   0.000000   0.000000   0.894998
   38  C  1 ZZZ   0.000000   0.000000   0.471511   0.000000   0.000000
   39  C  1 XXY   0.000000   0.351443   0.000000   0.000000   0.667092
   40  C  1 XXZ   0.000000   0.000000   0.351443   0.000000   0.000000
   41  C  1 YYX   0.351443   0.000000   0.000000   0.667092   0.000000
   42  C  1 YYZ   0.000000   0.000000   0.351443   0.000000   0.000000
   43  C  1 ZZX   0.351443   0.000000   0.000000   0.667092   0.000000
   44  C  1 ZZY   0.000000   0.351443   0.000000   0.000000   0.667092
   45  C  1 XYZ   0.000000   0.000000   0.000000   0.000000   0.000000
   46  C  1 XXX   0.111013   0.000000   0.000000   0.532906   0.000000
   47  C  1 YYY   0.000000   0.111013   0.000000   0.000000   0.532906
   48  C  1 ZZZ   0.000000   0.000000   0.111013   0.000000   0.000000
   49  C  1 XXY   0.000000   0.082744   0.000000   0.000000   0.397205
   50  C  1 XXZ   0.000000   0.000000   0.082744   0.000000   0.000000
   51  C  1 YYX   0.082744   0.000000   0.000000   0.397205   0.000000
   52  C  1 YYZ   0.000000   0.000000   0.082744   0.000000   0.000000
   53  C  1 ZZX   0.082744   0.000000   0.000000   0.397205   0.000000
   54  C  1 ZZY   0.000000   0.082744   0.000000   0.000000   0.397205
   55  C  1 XYZ   0.000000   0.000000   0.000000   0.000000   0.000000
   56  C  1XXXX   0.000000   0.000000   0.000000   0.000000   0.000000
   57  C  1YYYY   0.000000   0.000000   0.000000   0.000000   0.000000
   58  C  1ZZZZ   0.000000   0.000000   0.000000   0.000000   0.000000
   59  C  1XXXY   0.000000   0.000000   0.000000   0.000000   0.000000
   60  C  1XXXZ   0.000000   0.000000   0.000000   0.000000   0.000000
   61  C  1YYYX   0.000000   0.000000   0.000000   0.000000   0.000000
   62  C  1YYYZ   0.000000   0.000000   0.000000   0.000000   0.000000
   63  C  1ZZZX   0.000000   0.000000   0.000000   0.000000   0.000000
   64  C  1ZZZY   0.000000   0.000000   0.000000   0.000000   0.000000
   65  C  1XXYY   0.000000   0.000000   0.000000   0.000000   0.000000
   66  C  1XXZZ   0.000000   0.000000   0.000000   0.000000   0.000000
   67  C  1YYZZ   0.000000   0.000000   0.000000   0.000000   0.000000
   68  C  1XXYZ   0.000000   0.000000   0.000000   0.000000   0.000000
   69  C  1YYXZ   0.000000   0.000000   0.000000   0.000000   0.000000
   70  C  1ZZXY   0.000000   0.000000   0.000000   0.000000   0.000000
   71  C  1  S   -0.000000   0.000000   0.000000   0.000000   0.000000
   72  C  1  S   -0.000000   0.000000   0.000000   0.000000   0.000000
   73  C  1  S    0.000000   0.000000   0.000000  -0.000000   0.000000
   74  C  1  X    0.764268   0.000000   0.000000   0.249097   0.000000
   75  C  1  Y    0.000000   0.764268   0.000000   0.000000   0.249097
   76  C  1  Z    0.000000   0.000000   0.764268   0.000000   0.000000
   77  C  1  X    0.383290   0.000000   0.000000   0.074983   0.000000
   78  C  1  Y    0.000000   0.383290   0.000000   0.000000   0.074983
   79  C  1  Z    0.000000   0.000000   0.383290   0.000000   0.000000
   80  C  1  X    0.147952   0.000000   0.000000   0.020427   0.000000
   81  C  1  Y    0.000000   0.147952   0.000000   0.000000   0.020427
   82  C  1  Z    0.000000   0.000000   0.147952   0.000000   0.000000
   83  C  1 XX    0.000000   0.000000   0.000000   0.000000   0.000000
   84  C  1 YY    0.000000   0.000000   0.000000   0.000000   0.000000
   85  C  1 ZZ    0.000000   0.000000   0.000000   0.000000   0.000000
   86  C  1 XY    0.000000   0.000000   0.000000   0.000000   0.000000
   87  C  1 XZ    0.000000   0.000000   0.000000   0.000000   0.000000
   88  C  1 YZ    0.000000   0.000000   0.000000   0.000000   0.000000
   89  C  1 XX    0.000000   0.000000   0.000000   0.000000   0.000000
   90  C  1 YY   -0.000000   0.000000   0.000000  -0.000000   0.000000
   91  C  1 ZZ   -0.000000   0.000000   0.000000  -0.000000   0.000000
   92  C  1 XY    0.000000  -0.000000   0.000000   0.000000  -0.000000
   93  C  1 XZ    0.000000   0.000000  -0.000000   0.000000   0.000000
   94  C  1 YZ    0.000000   0.000000   0.000000   0.000000   0.000000
   95  C  1 XXX   0.474784   0.000000   0.000000   0.109759   0.000000
   96  C  1 YYY   0.000000   0.474784   0.000000   0.000000   0.109759
   97  C  1 ZZZ   0.000000   0.000000   0.474784   0.000000   0.000000
   98  C  1 XXY   0.000000   0.353883   0.000000   0.000000   0.081809
   99  C  1 XXZ   0.000000   0.000000   0.353883   0.000000   0.000000
  100  C  1 YYX   0.353883   0.000000   0.000000   0.081809   0.000000
  101  C  1 YYZ   0.000000   0.000000   0.353883   0.000000   0.000000
  102  C  1 ZZX   0.353883   0.000000   0.000000   0.081809   0.000000
  103  C  1 ZZY   0.000000   0.353883   0.000000   0.000000   0.081809
  104  C  1 XYZ   0.000000   0.000000   0.000000   0.000000   0.000000
  105  C  1  S   -0.000000   0.000000   0.000000   0.000000   0.000000
  106  C  1  X    0.022559   0.000000   0.000000   0.090610   0.000000
  107  C  1  Y    0.000000   0.022559   0.000000   0.000000   0.090610
  108  C  1  Z    0.000000   0.000000   0.022559   0.000000   0.000000
  109  C  1 XX    0.000000   0.000000   0.000000   0.000000   0.000000
  110  C  1 YY    0.000000   0.000000   0.000000   0.000000   0.000000
  111  C  1 ZZ    0.000000   0.000000   0.000000   0.000000   0.000000
  112  C  1 XY    0.000000   0.000000   0.000000   0.000000   0.000000
  113  C  1 XZ    0.000000   0.000000   0.000000   0.000000   0.000000
  114  C  1 YZ    0.000000   0.000000   0.000000   0.000000   0.000000
  115  C  1 XXX   0.019021   0.000000   0.000000   0.155513   0.000000
  116  C  1 YYY   0.000000   0.019021   0.000000   0.000000   0.155513
  117  C  1 ZZZ   0.000000   0.000000   0.019021   0.000000   0.000000
  118  C  1 XXY   0.000000   0.014177   0.000000   0.000000   0.115913
  119  C  1 XXZ   0.000000   0.000000   0.014177   0.000000   0.000000
  120  C  1 YYX   0.014177   0.000000   0.000000   0.115913   0.000000
  121  C  1 YYZ   0.000000   0.000000   0.014177   0.000000   0.000000
  122  C  1 ZZX   0.014177   0.000000   0.000000   0.115913   0.000000
  123  C  1 ZZY   0.000000   0.014177   0.000000   0.000000   0.115913
  124  C  1 XYZ   0.000000   0.000000   0.000000   0.000000   0.000000
  125  C  1XXXX   0.000000   0.000000   0.000000   0.000000   0.000000
  126  C  1YYYY   0.000000   0.000000   0.000000  -0.000000   0.000000
  127  C  1ZZZZ   0.000000   0.000000   0.000000  -0.000000   0.000000
  128  C  1XXXY   0.000000   0.000000   0.000000   0.000000   0.000000
  129  C  1XXXZ   0.000000   0.000000   0.000000   0.000000   0.000000
  130  C  1YYYX   0.000000   0.000000   0.000000   0.000000  -0.000000
  131  C  1YYYZ   0.000000   0.000000   0.000000   0.000000   0.000000
  132  C  1ZZZX   0.000000   0.000000   0.000000   0.000000   0.000000
  133  C  1ZZZY   0.000000   0.000000   0.000000   0.000000   0.000000
  134  C  1XXYY   0.000000   0.000000   0.000000   0.000000   0.000000
  135  C  1XXZZ   0.000000   0.000000   0.000000   0.000000   0.000000
  136  C  1YYZZ   0.000000   0.000000   0.000000  -0.000000   0.000000
  137  C  1XXYZ   0.000000   0.000000   0.000000   0.000000   0.000000
  138  C  1YYXZ   0.000000   0.000000   0.000000   0.000000   0.000000
  139  C  1ZZXY   0.000000   0.000000   0.000000   0.000000  -0.000000

                     11         12         13         14         15

   11  C  1  Z    1.000000
   12  C  1  X    0.000000   1.000000
   13  C  1  Y    0.000000   0.000000   1.000000
   14  C  1  Z    0.725760   0.000000   0.000000   1.000000
   15  C  1  X    0.000000   0.717229   0.000000   0.000000   1.000000
   16  C  1  Y    0.000000   0.000000   0.717229   0.000000   0.000000
   17  C  1  Z    0.310357   0.000000   0.000000   0.717229   0.000000
   18  C  1 XX    0.000000   0.000000   0.000000   0.000000   0.000000
   19  C  1 YY    0.000000   0.000000   0.000000   0.000000   0.000000
   20  C  1 ZZ    0.000000   0.000000   0.000000   0.000000   0.000000
   21  C  1 XY    0.000000   0.000000   0.000000   0.000000   0.000000
   22  C  1 XZ    0.000000   0.000000   0.000000   0.000000   0.000000
   23  C  1 YZ    0.000000   0.000000   0.000000   0.000000   0.000000
   24  C  1 XX    0.000000   0.000000   0.000000   0.000000   0.000000
   25  C  1 YY    0.000000   0.000000   0.000000   0.000000   0.000000
   26  C  1 ZZ    0.000000   0.000000   0.000000   0.000000   0.000000
   27  C  1 XY    0.000000   0.000000   0.000000   0.000000   0.000000
   28  C  1 XZ    0.000000   0.000000   0.000000   0.000000   0.000000
   29  C  1 YZ    0.000000   0.000000   0.000000   0.000000   0.000000
   30  C  1 XX    0.000000   0.000000   0.000000   0.000000   0.000000
   31  C  1 YY    0.000000  -0.000000   0.000000   0.000000  -0.000000
   32  C  1 ZZ    0.000000  -0.000000   0.000000   0.000000  -0.000000
   33  C  1 XY    0.000000   0.000000  -0.000000   0.000000   0.000000
   34  C  1 XZ    0.000000   0.000000   0.000000  -0.000000   0.000000
   35  C  1 YZ    0.000000   0.000000   0.000000   0.000000   0.000000
   36  C  1 XXX   0.000000   0.626694   0.000000   0.000000   0.252508
   37  C  1 YYY   0.000000   0.000000   0.626694   0.000000   0.000000
   38  C  1 ZZZ   0.894998   0.000000   0.000000   0.626694   0.000000
   39  C  1 XXY   0.000000   0.000000   0.467110   0.000000   0.000000
   40  C  1 XXZ   0.667092   0.000000   0.000000   0.467110   0.000000
   41  C  1 YYX   0.000000   0.467110   0.000000   0.000000   0.188208
   42  C  1 YYZ   0.667092   0.000000   0.000000   0.467110   0.000000
   43  C  1 ZZX   0.000000   0.467110   0.000000   0.000000   0.188208
   44  C  1 ZZY   0.000000   0.000000   0.467110   0.000000   0.000000
   45  C  1 XYZ   0.000000   0.000000   0.000000   0.000000   0.000000
   46  C  1 XXX   0.000000   0.893570   0.000000   0.000000   0.634634
   47  C  1 YYY   0.000000   0.000000   0.893570   0.000000   0.000000
   48  C  1 ZZZ   0.532906   0.000000   0.000000   0.893570   0.000000
   49  C  1 XXY   0.000000   0.000000   0.666028   0.000000   0.000000
   50  C  1 XXZ   0.397205   0.000000   0.000000   0.666028   0.000000
   51  C  1 YYX   0.000000   0.666028   0.000000   0.000000   0.473028
   52  C  1 YYZ   0.397205   0.000000   0.000000   0.666028   0.000000
   53  C  1 ZZX   0.000000   0.666028   0.000000   0.000000   0.473028
   54  C  1 ZZY   0.000000   0.000000   0.666028   0.000000   0.000000
   55  C  1 XYZ   0.000000   0.000000   0.000000   0.000000   0.000000
   56  C  1XXXX   0.000000   0.000000   0.000000   0.000000   0.000000
   57  C  1YYYY   0.000000   0.000000   0.000000   0.000000   0.000000
   58  C  1ZZZZ   0.000000   0.000000   0.000000   0.000000   0.000000
   59  C  1XXXY   0.000000   0.000000   0.000000   0.000000   0.000000
   60  C  1XXXZ   0.000000   0.000000   0.000000   0.000000   0.000000
   61  C  1YYYX   0.000000   0.000000   0.000000   0.000000   0.000000
   62  C  1YYYZ   0.000000   0.000000   0.000000   0.000000   0.000000
   63  C  1ZZZX   0.000000   0.000000   0.000000   0.000000   0.000000
   64  C  1ZZZY   0.000000   0.000000   0.000000   0.000000   0.000000
   65  C  1XXYY   0.000000   0.000000   0.000000   0.000000   0.000000
   66  C  1XXZZ   0.000000   0.000000   0.000000   0.000000   0.000000
   67  C  1YYZZ   0.000000   0.000000   0.000000   0.000000   0.000000
   68  C  1XXYZ   0.000000   0.000000   0.000000   0.000000   0.000000
   69  C  1YYXZ   0.000000   0.000000   0.000000   0.000000   0.000000
   70  C  1ZZXY   0.000000   0.000000   0.000000   0.000000   0.000000
   71  C  1  S    0.000000   0.000000   0.000000   0.000000   0.000000
   72  C  1  S    0.000000  -0.000000   0.000000   0.000000  -0.000000
   73  C  1  S    0.000000   0.000000   0.000000   0.000000   0.000000
   74  C  1  X    0.000000   0.079421   0.000000   0.000000   0.022491
   75  C  1  Y    0.000000   0.000000   0.079421   0.000000   0.000000
   76  C  1  Z    0.249097   0.000000   0.000000   0.079421   0.000000
   77  C  1  X    0.000000   0.021694   0.000000   0.000000   0.005921
   78  C  1  Y    0.000000   0.000000   0.021694   0.000000   0.000000
   79  C  1  Z    0.074983   0.000000   0.000000   0.021694   0.000000
   80  C  1  X    0.000000   0.005708   0.000000   0.000000   0.001538
   81  C  1  Y    0.000000   0.000000   0.005708   0.000000   0.000000
   82  C  1  Z    0.020427   0.000000   0.000000   0.005708   0.000000
   83  C  1 XX    0.000000   0.000000   0.000000   0.000000   0.000000
   84  C  1 YY    0.000000   0.000000   0.000000   0.000000   0.000000
   85  C  1 ZZ    0.000000   0.000000   0.000000   0.000000   0.000000
   86  C  1 XY    0.000000   0.000000   0.000000   0.000000   0.000000
   87  C  1 XZ    0.000000   0.000000   0.000000   0.000000   0.000000
   88  C  1 YZ    0.000000   0.000000   0.000000   0.000000   0.000000
   89  C  1 XX    0.000000   0.000000   0.000000   0.000000   0.000000
   90  C  1 YY    0.000000   0.000000   0.000000   0.000000  -0.000000
   91  C  1 ZZ    0.000000   0.000000   0.000000   0.000000  -0.000000
   92  C  1 XY    0.000000   0.000000   0.000000   0.000000   0.000000
   93  C  1 XZ   -0.000000   0.000000   0.000000   0.000000   0.000000
   94  C  1 YZ    0.000000   0.000000   0.000000   0.000000   0.000000
   95  C  1 XXX   0.000000   0.032388   0.000000   0.000000   0.008903
   96  C  1 YYY   0.000000   0.000000   0.032388   0.000000   0.000000
   97  C  1 ZZZ   0.109759   0.000000   0.000000   0.032388   0.000000
   98  C  1 XXY   0.000000   0.000000   0.024140   0.000000   0.000000
   99  C  1 XXZ   0.081809   0.000000   0.000000   0.024140   0.000000
  100  C  1 YYX   0.000000   0.024140   0.000000   0.000000   0.006636
  101  C  1 YYZ   0.081809   0.000000   0.000000   0.024140   0.000000
  102  C  1 ZZX   0.000000   0.024140   0.000000   0.000000   0.006636
  103  C  1 ZZY   0.000000   0.000000   0.024140   0.000000   0.000000
  104  C  1 XYZ   0.000000   0.000000   0.000000   0.000000   0.000000
  105  C  1  S    0.000000   0.000000   0.000000   0.000000   0.000000
  106  C  1  X    0.000000   0.279453   0.000000   0.000000   0.679509
  107  C  1  Y    0.000000   0.000000   0.279453   0.000000   0.000000
  108  C  1  Z    0.090610   0.000000   0.000000   0.279453   0.000000
  109  C  1 XX    0.000000   0.000000   0.000000   0.000000   0.000000
  110  C  1 YY    0.000000  -0.000000   0.000000   0.000000  -0.000000
  111  C  1 ZZ    0.000000  -0.000000   0.000000   0.000000  -0.000000
  112  C  1 XY    0.000000   0.000000  -0.000000   0.000000   0.000000
  113  C  1 XZ    0.000000   0.000000   0.000000  -0.000000   0.000000
  114  C  1 YZ    0.000000   0.000000   0.000000   0.000000   0.000000
  115  C  1 XXX   0.000000   0.573881   0.000000   0.000000   0.894997
  116  C  1 YYY   0.000000   0.000000   0.573881   0.000000   0.000000
  117  C  1 ZZZ   0.155513   0.000000   0.000000   0.573881   0.000000
  118  C  1 XXY   0.000000   0.000000   0.427746   0.000000   0.000000
  119  C  1 XXZ   0.115913   0.000000   0.000000   0.427746   0.000000
  120  C  1 YYX   0.000000   0.427746   0.000000   0.000000   0.667091
  121  C  1 YYZ   0.115913   0.000000   0.000000   0.427746   0.000000
  122  C  1 ZZX   0.000000   0.427746   0.000000   0.000000   0.667091
  123  C  1 ZZY   0.000000   0.000000   0.427746   0.000000   0.000000
  124  C  1 XYZ   0.000000   0.000000   0.000000   0.000000   0.000000
  125  C  1XXXX   0.000000   0.000000   0.000000   0.000000   0.000000
  126  C  1YYYY   0.000000  -0.000000   0.000000   0.000000   0.000000
  127  C  1ZZZZ   0.000000  -0.000000   0.000000   0.000000   0.000000
  128  C  1XXXY   0.000000   0.000000   0.000000   0.000000   0.000000
  129  C  1XXXZ   0.000000   0.000000   0.000000   0.000000   0.000000
  130  C  1YYYX   0.000000   0.000000  -0.000000   0.000000   0.000000
  131  C  1YYYZ   0.000000   0.000000   0.000000   0.000000   0.000000
  132  C  1ZZZX  -0.000000   0.000000   0.000000  -0.000000   0.000000
  133  C  1ZZZY   0.000000   0.000000   0.000000   0.000000   0.000000
  134  C  1XXYY   0.000000   0.000000   0.000000   0.000000   0.000000
  135  C  1XXZZ   0.000000   0.000000   0.000000   0.000000   0.000000
  136  C  1YYZZ   0.000000  -0.000000   0.000000   0.000000   0.000000
  137  C  1XXYZ   0.000000   0.000000   0.000000   0.000000   0.000000
  138  C  1YYXZ  -0.000000   0.000000   0.000000  -0.000000   0.000000
  139  C  1ZZXY   0.000000   0.000000  -0.000000   0.000000   0.000000

                     16         17         18         19         20

   16  C  1  Y    1.000000
   17  C  1  Z    0.000000   1.000000
   18  C  1 XX    0.000000   0.000000   1.000000
   19  C  1 YY    0.000000   0.000000   0.333333   1.000000
   20  C  1 ZZ    0.000000   0.000000   0.333333   0.333333   1.000000
   21  C  1 XY    0.000000   0.000000   0.000000   0.000000   0.000000
   22  C  1 XZ    0.000000   0.000000   0.000000   0.000000   0.000000
   23  C  1 YZ    0.000000   0.000000   0.000000   0.000000   0.000000
   24  C  1 XX    0.000000   0.000000   0.632116   0.210705   0.210705
   25  C  1 YY    0.000000   0.000000   0.210705   0.632116   0.210705
   26  C  1 ZZ    0.000000   0.000000   0.210705   0.210705   0.632116
   27  C  1 XY    0.000000   0.000000   0.000000   0.000000   0.000000
   28  C  1 XZ    0.000000   0.000000   0.000000   0.000000   0.000000
   29  C  1 YZ    0.000000   0.000000   0.000000   0.000000   0.000000
   30  C  1 XX    0.000000   0.000000   0.193385   0.064462   0.064462
   31  C  1 YY    0.000000   0.000000   0.064462   0.193385   0.064462
   32  C  1 ZZ    0.000000   0.000000   0.064462   0.064462   0.193385
   33  C  1 XY   -0.000000   0.000000   0.000000   0.000000   0.000000
   34  C  1 XZ    0.000000  -0.000000   0.000000   0.000000   0.000000
   35  C  1 YZ    0.000000   0.000000   0.000000   0.000000   0.000000
   36  C  1 XXX   0.000000   0.000000   0.000000   0.000000   0.000000
   37  C  1 YYY   0.252508   0.000000   0.000000   0.000000   0.000000
   38  C  1 ZZZ   0.000000   0.252508   0.000000   0.000000   0.000000
   39  C  1 XXY   0.188208   0.000000   0.000000   0.000000   0.000000
   40  C  1 XXZ   0.000000   0.188208   0.000000   0.000000   0.000000
   41  C  1 YYX   0.000000   0.000000   0.000000  -0.000000  -0.000000
   42  C  1 YYZ   0.000000   0.188208   0.000000   0.000000   0.000000
   43  C  1 ZZX   0.000000   0.000000   0.000000  -0.000000  -0.000000
   44  C  1 ZZY   0.188208   0.000000   0.000000   0.000000   0.000000
   45  C  1 XYZ   0.000000   0.000000   0.000000   0.000000   0.000000
   46  C  1 XXX   0.000000   0.000000   0.000000   0.000000   0.000000
   47  C  1 YYY   0.634634   0.000000   0.000000   0.000000   0.000000
   48  C  1 ZZZ   0.000000   0.634634   0.000000   0.000000   0.000000
   49  C  1 XXY   0.473028   0.000000   0.000000   0.000000   0.000000
   50  C  1 XXZ   0.000000   0.473028   0.000000   0.000000   0.000000
   51  C  1 YYX   0.000000   0.000000   0.000000   0.000000   0.000000
   52  C  1 YYZ   0.000000   0.473028   0.000000   0.000000   0.000000
   53  C  1 ZZX   0.000000   0.000000   0.000000   0.000000   0.000000
   54  C  1 ZZY   0.473028   0.000000   0.000000   0.000000   0.000000
   55  C  1 XYZ   0.000000   0.000000   0.000000   0.000000   0.000000
   56  C  1XXXX   0.000000   0.000000   0.510977   0.102195   0.102195
   57  C  1YYYY   0.000000   0.000000   0.102195   0.510977   0.102195
   58  C  1ZZZZ   0.000000   0.000000   0.102195   0.102195   0.510977
   59  C  1XXXY   0.000000   0.000000   0.000000   0.000000   0.000000
   60  C  1XXXZ   0.000000   0.000000   0.000000   0.000000   0.000000
   61  C  1YYYX   0.000000   0.000000   0.000000   0.000000   0.000000
   62  C  1YYYZ   0.000000   0.000000   0.000000   0.000000   0.000000
   63  C  1ZZZX   0.000000   0.000000   0.000000   0.000000   0.000000
   64  C  1ZZZY   0.000000   0.000000   0.000000   0.000000   0.000000
   65  C  1XXYY   0.000000   0.000000   0.349064   0.349064   0.116355
   66  C  1XXZZ   0.000000   0.000000   0.349064   0.116355   0.349064
   67  C  1YYZZ   0.000000   0.000000   0.116355   0.349064   0.349064
   68  C  1XXYZ   0.000000   0.000000   0.000000   0.000000   0.000000
   69  C  1YYXZ   0.000000   0.000000   0.000000   0.000000   0.000000
   70  C  1ZZXY   0.000000   0.000000   0.000000   0.000000   0.000000
   71  C  1  S    0.000000   0.000000   0.170281   0.170281   0.170281
   72  C  1  S    0.000000   0.000000   0.041927   0.041927   0.041927
   73  C  1  S    0.000000   0.000000   0.008415   0.008415   0.008415
   74  C  1  X    0.000000   0.000000   0.000000   0.000000   0.000000
   75  C  1  Y    0.022491   0.000000   0.000000   0.000000   0.000000
   76  C  1  Z    0.000000   0.022491   0.000000   0.000000   0.000000
   77  C  1  X    0.000000   0.000000   0.000000   0.000000   0.000000
   78  C  1  Y    0.005921   0.000000   0.000000   0.000000   0.000000
   79  C  1  Z    0.000000   0.005921   0.000000   0.000000   0.000000
   80  C  1  X    0.000000   0.000000   0.000000   0.000000   0.000000
   81  C  1  Y    0.001538   0.000000   0.000000   0.000000   0.000000
   82  C  1  Z    0.000000   0.001538   0.000000   0.000000   0.000000
   83  C  1 XX    0.000000   0.000000   0.385387   0.128462   0.128462
   84  C  1 YY    0.000000   0.000000   0.128462   0.385387   0.128462
   85  C  1 ZZ    0.000000   0.000000   0.128462   0.128462   0.385387
   86  C  1 XY    0.000000   0.000000   0.000000   0.000000   0.000000
   87  C  1 XZ    0.000000   0.000000   0.000000   0.000000   0.000000
   88  C  1 YZ    0.000000   0.000000   0.000000   0.000000   0.000000
   89  C  1 XX    0.000000   0.000000   0.059667   0.019889   0.019889
   90  C  1 YY    0.000000   0.000000   0.019889   0.059667   0.019889
   91  C  1 ZZ    0.000000   0.000000   0.019889   0.019889   0.059667
   92  C  1 XY   -0.000000   0.000000   0.000000   0.000000   0.000000
   93  C  1 XZ    0.000000  -0.000000   0.000000   0.000000   0.000000
   94  C  1 YZ    0.000000   0.000000   0.000000   0.000000   0.000000
   95  C  1 XXX   0.000000   0.000000   0.000000   0.000000   0.000000
   96  C  1 YYY   0.008903   0.000000   0.000000   0.000000   0.000000
   97  C  1 ZZZ   0.000000   0.008903   0.000000   0.000000   0.000000
   98  C  1 XXY   0.006636   0.000000   0.000000   0.000000   0.000000
   99  C  1 XXZ   0.000000   0.006636   0.000000   0.000000   0.000000
  100  C  1 YYX   0.000000   0.000000   0.000000   0.000000   0.000000
  101  C  1 YYZ   0.000000   0.006636   0.000000   0.000000   0.000000
  102  C  1 ZZX   0.000000   0.000000   0.000000   0.000000   0.000000
  103  C  1 ZZY   0.006636   0.000000   0.000000   0.000000   0.000000
  104  C  1 XYZ   0.000000   0.000000   0.000000   0.000000   0.000000
  105  C  1  S    0.000000   0.000000   0.179080   0.179080   0.179080
  106  C  1  X    0.000000   0.000000   0.000000  -0.000000  -0.000000
  107  C  1  Y    0.679509   0.000000   0.000000   0.000000   0.000000
  108  C  1  Z    0.000000   0.679509   0.000000   0.000000   0.000000
  109  C  1 XX    0.000000   0.000000   0.037372   0.012457   0.012457
  110  C  1 YY    0.000000   0.000000   0.012457   0.037372   0.012457
  111  C  1 ZZ    0.000000   0.000000   0.012457   0.012457   0.037372
  112  C  1 XY   -0.000000   0.000000   0.000000   0.000000   0.000000
  113  C  1 XZ    0.000000  -0.000000   0.000000   0.000000   0.000000
  114  C  1 YZ    0.000000   0.000000   0.000000   0.000000   0.000000
  115  C  1 XXX   0.000000   0.000000   0.000000   0.000000   0.000000
  116  C  1 YYY   0.894997   0.000000   0.000000   0.000000   0.000000
  117  C  1 ZZZ   0.000000   0.894997   0.000000   0.000000   0.000000
  118  C  1 XXY   0.667091   0.000000   0.000000   0.000000   0.000000
  119  C  1 XXZ   0.000000   0.667091   0.000000   0.000000   0.000000
  120  C  1 YYX   0.000000   0.000000   0.000000   0.000000   0.000000
  121  C  1 YYZ   0.000000   0.667091   0.000000   0.000000   0.000000
  122  C  1 ZZX   0.000000   0.000000   0.000000   0.000000   0.000000
  123  C  1 ZZY   0.667091   0.000000   0.000000   0.000000   0.000000
  124  C  1 XYZ   0.000000   0.000000   0.000000   0.000000   0.000000
  125  C  1XXXX   0.000000   0.000000   0.131740   0.026348   0.026348
  126  C  1YYYY   0.000000   0.000000   0.026348   0.131740   0.026348
  127  C  1ZZZZ   0.000000   0.000000   0.026348   0.026348   0.131740
  128  C  1XXXY   0.000000   0.000000   0.000000   0.000000   0.000000
  129  C  1XXXZ   0.000000   0.000000   0.000000   0.000000   0.000000
  130  C  1YYYX   0.000000   0.000000   0.000000   0.000000   0.000000
  131  C  1YYYZ   0.000000   0.000000   0.000000   0.000000   0.000000
  132  C  1ZZZX   0.000000   0.000000   0.000000   0.000000   0.000000
  133  C  1ZZZY   0.000000   0.000000   0.000000   0.000000   0.000000
  134  C  1XXYY   0.000000   0.000000   0.089996   0.089996   0.029999
  135  C  1XXZZ   0.000000   0.000000   0.089996   0.029999   0.089996
  136  C  1YYZZ   0.000000   0.000000   0.029999   0.089996   0.089996
  137  C  1XXYZ   0.000000   0.000000   0.000000   0.000000   0.000000
  138  C  1YYXZ   0.000000   0.000000   0.000000   0.000000   0.000000
  139  C  1ZZXY   0.000000   0.000000   0.000000   0.000000   0.000000

                     21         22         23         24         25

   21  C  1 XY    1.000000
   22  C  1 XZ    0.000000   1.000000
   23  C  1 YZ    0.000000   0.000000   1.000000
   24  C  1 XX    0.000000   0.000000   0.000000   1.000000
   25  C  1 YY    0.000000   0.000000   0.000000   0.333333   1.000000
   26  C  1 ZZ    0.000000   0.000000   0.000000   0.333333   0.333333
   27  C  1 XY    0.632116   0.000000   0.000000   0.000000   0.000000
   28  C  1 XZ    0.000000   0.632116   0.000000   0.000000   0.000000
   29  C  1 YZ    0.000000   0.000000   0.632116   0.000000   0.000000
   30  C  1 XX    0.000000   0.000000   0.000000   0.632296   0.210765
   31  C  1 YY    0.000000   0.000000   0.000000   0.210765   0.632296
   32  C  1 ZZ    0.000000   0.000000   0.000000   0.210765   0.210765
   33  C  1 XY    0.193385   0.000000   0.000000   0.000000   0.000000
   34  C  1 XZ    0.000000   0.193385   0.000000   0.000000   0.000000
   35  C  1 YZ    0.000000   0.000000   0.193385   0.000000   0.000000
   36  C  1 XXX   0.000000   0.000000   0.000000   0.000000   0.000000
   37  C  1 YYY  -0.000000   0.000000   0.000000   0.000000   0.000000
   38  C  1 ZZZ   0.000000  -0.000000   0.000000   0.000000   0.000000
   39  C  1 XXY   0.000000   0.000000   0.000000   0.000000   0.000000
   40  C  1 XXZ   0.000000   0.000000   0.000000   0.000000   0.000000
   41  C  1 YYX   0.000000   0.000000   0.000000   0.000000   0.000000
   42  C  1 YYZ   0.000000  -0.000000   0.000000   0.000000   0.000000
   43  C  1 ZZX   0.000000   0.000000   0.000000   0.000000   0.000000
   44  C  1 ZZY  -0.000000   0.000000   0.000000   0.000000   0.000000
   45  C  1 XYZ   0.000000   0.000000  -0.000000   0.000000   0.000000
   46  C  1 XXX   0.000000   0.000000   0.000000   0.000000   0.000000
   47  C  1 YYY   0.000000   0.000000   0.000000   0.000000   0.000000
   48  C  1 ZZZ   0.000000   0.000000   0.000000   0.000000   0.000000
   49  C  1 XXY   0.000000   0.000000   0.000000   0.000000   0.000000
   50  C  1 XXZ   0.000000   0.000000   0.000000   0.000000   0.000000
   51  C  1 YYX   0.000000   0.000000   0.000000   0.000000   0.000000
   52  C  1 YYZ   0.000000   0.000000   0.000000   0.000000   0.000000
   53  C  1 ZZX   0.000000   0.000000   0.000000   0.000000   0.000000
   54  C  1 ZZY   0.000000   0.000000   0.000000   0.000000   0.000000
   55  C  1 XYZ   0.000000   0.000000   0.000000   0.000000   0.000000
   56  C  1XXXX   0.000000   0.000000   0.000000   0.945319   0.189064
   57  C  1YYYY   0.000000   0.000000   0.000000   0.189064   0.945319
   58  C  1ZZZZ   0.000000   0.000000   0.000000   0.189064   0.189064
   59  C  1XXXY   0.468318   0.000000   0.000000   0.000000   0.000000
   60  C  1XXXZ   0.000000   0.468318   0.000000   0.000000   0.000000
   61  C  1YYYX   0.468318   0.000000   0.000000   0.000000   0.000000
   62  C  1YYYZ   0.000000   0.000000   0.468318   0.000000   0.000000
   63  C  1ZZZX   0.000000   0.468318   0.000000   0.000000   0.000000
   64  C  1ZZZY   0.000000   0.000000   0.468318   0.000000   0.000000
   65  C  1XXYY   0.000000   0.000000   0.000000   0.645776   0.645776
   66  C  1XXZZ   0.000000   0.000000   0.000000   0.645776   0.215259
   67  C  1YYZZ   0.000000   0.000000   0.000000   0.215259   0.645776
   68  C  1XXYZ   0.000000   0.000000   0.349064   0.000000   0.000000
   69  C  1YYXZ   0.000000   0.349064   0.000000   0.000000   0.000000
   70  C  1ZZXY   0.349064   0.000000   0.000000   0.000000   0.000000
   71  C  1  S    0.000000   0.000000   0.000000   0.038897   0.038897
   72  C  1  S    0.000000   0.000000   0.000000   0.007758   0.007758
   73  C  1  S    0.000000   0.000000   0.000000   0.001425   0.001425
   74  C  1  X    0.000000   0.000000   0.000000   0.000000   0.000000
   75  C  1  Y    0.000000   0.000000   0.000000   0.000000   0.000000
   76  C  1  Z    0.000000   0.000000   0.000000   0.000000   0.000000
   77  C  1  X    0.000000   0.000000   0.000000   0.000000   0.000000
   78  C  1  Y    0.000000   0.000000   0.000000   0.000000   0.000000
   79  C  1  Z    0.000000   0.000000   0.000000   0.000000   0.000000
   80  C  1  X    0.000000   0.000000   0.000000   0.000000   0.000000
   81  C  1  Y    0.000000   0.000000   0.000000   0.000000   0.000000
   82  C  1  Z    0.000000   0.000000   0.000000   0.000000   0.000000
   83  C  1 XX    0.000000   0.000000   0.000000   0.094369   0.031456
   84  C  1 YY    0.000000   0.000000   0.000000   0.031456   0.094369
   85  C  1 ZZ    0.000000   0.000000   0.000000   0.031456   0.031456
   86  C  1 XY    0.385387   0.000000   0.000000   0.000000   0.000000
   87  C  1 XZ    0.000000   0.385387   0.000000   0.000000   0.000000
   88  C  1 YZ    0.000000   0.000000   0.385387   0.000000   0.000000
   89  C  1 XX    0.000000   0.000000   0.000000   0.010798   0.003599
   90  C  1 YY    0.000000   0.000000   0.000000   0.003599   0.010798
   91  C  1 ZZ    0.000000   0.000000   0.000000   0.003599   0.003599
   92  C  1 XY    0.059667   0.000000   0.000000   0.000000   0.000000
   93  C  1 XZ    0.000000   0.059667   0.000000   0.000000   0.000000
   94  C  1 YZ    0.000000   0.000000   0.059667   0.000000   0.000000
   95  C  1 XXX   0.000000   0.000000   0.000000   0.000000   0.000000
   96  C  1 YYY   0.000000   0.000000   0.000000   0.000000   0.000000
   97  C  1 ZZZ   0.000000   0.000000   0.000000   0.000000   0.000000
   98  C  1 XXY   0.000000   0.000000   0.000000   0.000000   0.000000
   99  C  1 XXZ   0.000000   0.000000   0.000000   0.000000   0.000000
  100  C  1 YYX   0.000000   0.000000   0.000000   0.000000   0.000000
  101  C  1 YYZ   0.000000   0.000000   0.000000   0.000000   0.000000
  102  C  1 ZZX   0.000000   0.000000   0.000000   0.000000   0.000000
  103  C  1 ZZY   0.000000   0.000000   0.000000   0.000000   0.000000
  104  C  1 XYZ   0.000000   0.000000   0.000000   0.000000   0.000000
  105  C  1  S    0.000000   0.000000   0.000000   0.355431   0.355431
  106  C  1  X    0.000000   0.000000   0.000000   0.000000   0.000000
  107  C  1  Y   -0.000000   0.000000   0.000000   0.000000   0.000000
  108  C  1  Z    0.000000  -0.000000   0.000000   0.000000   0.000000
  109  C  1 XX    0.000000   0.000000   0.000000   0.181967   0.060656
  110  C  1 YY    0.000000   0.000000   0.000000   0.060656   0.181967
  111  C  1 ZZ    0.000000   0.000000   0.000000   0.060656   0.060656
  112  C  1 XY    0.037372   0.000000   0.000000   0.000000   0.000000
  113  C  1 XZ    0.000000   0.037372   0.000000   0.000000   0.000000
  114  C  1 YZ    0.000000   0.000000   0.037372   0.000000   0.000000
  115  C  1 XXX   0.000000   0.000000   0.000000   0.000000   0.000000
  116  C  1 YYY   0.000000   0.000000   0.000000   0.000000   0.000000
  117  C  1 ZZZ   0.000000   0.000000   0.000000   0.000000   0.000000
  118  C  1 XXY   0.000000   0.000000   0.000000   0.000000   0.000000
  119  C  1 XXZ   0.000000   0.000000   0.000000   0.000000   0.000000
  120  C  1 YYX   0.000000   0.000000   0.000000   0.000000  -0.000000
  121  C  1 YYZ   0.000000   0.000000   0.000000   0.000000   0.000000
  122  C  1 ZZX   0.000000   0.000000   0.000000   0.000000  -0.000000
  123  C  1 ZZY   0.000000   0.000000   0.000000   0.000000   0.000000
  124  C  1 XYZ   0.000000   0.000000   0.000000   0.000000   0.000000
  125  C  1XXXX   0.000000   0.000000   0.000000   0.617386   0.123477
  126  C  1YYYY   0.000000   0.000000   0.000000   0.123477   0.617386
  127  C  1ZZZZ   0.000000   0.000000   0.000000   0.123477   0.123477
  128  C  1XXXY   0.120742   0.000000   0.000000   0.000000   0.000000
  129  C  1XXXZ   0.000000   0.120742   0.000000   0.000000   0.000000
  130  C  1YYYX   0.120742   0.000000   0.000000   0.000000   0.000000
  131  C  1YYYZ   0.000000   0.000000   0.120742   0.000000   0.000000
  132  C  1ZZZX   0.000000   0.120742   0.000000   0.000000   0.000000
  133  C  1ZZZY   0.000000   0.000000   0.120742   0.000000   0.000000
  134  C  1XXYY   0.000000   0.000000   0.000000   0.421755   0.421755
  135  C  1XXZZ   0.000000   0.000000   0.000000   0.421755   0.140585
  136  C  1YYZZ   0.000000   0.000000   0.000000   0.140585   0.421755
  137  C  1XXYZ   0.000000   0.000000   0.089996   0.000000   0.000000
  138  C  1YYXZ   0.000000   0.089996   0.000000   0.000000   0.000000
  139  C  1ZZXY   0.089996   0.000000   0.000000   0.000000   0.000000

                     26         27         28         29         30

   26  C  1 ZZ    1.000000
   27  C  1 XY    0.000000   1.000000
   28  C  1 XZ    0.000000   0.000000   1.000000
   29  C  1 YZ    0.000000   0.000000   0.000000   1.000000
   30  C  1 XX    0.210765   0.000000   0.000000   0.000000   1.000000
   31  C  1 YY    0.210765   0.000000   0.000000   0.000000   0.333333
   32  C  1 ZZ    0.632296   0.000000   0.000000   0.000000   0.333333
   33  C  1 XY    0.000000   0.632296   0.000000   0.000000   0.000000
   34  C  1 XZ    0.000000   0.000000   0.632296   0.000000   0.000000
   35  C  1 YZ    0.000000   0.000000   0.000000   0.632296   0.000000
   36  C  1 XXX   0.000000   0.000000   0.000000   0.000000   0.000000
   37  C  1 YYY   0.000000   0.000000   0.000000   0.000000   0.000000
   38  C  1 ZZZ   0.000000   0.000000   0.000000   0.000000   0.000000
   39  C  1 XXY   0.000000   0.000000   0.000000   0.000000   0.000000
   40  C  1 XXZ   0.000000   0.000000   0.000000   0.000000   0.000000
   41  C  1 YYX   0.000000   0.000000   0.000000   0.000000   0.000000
   42  C  1 YYZ   0.000000   0.000000   0.000000   0.000000   0.000000
   43  C  1 ZZX   0.000000   0.000000   0.000000   0.000000   0.000000
   44  C  1 ZZY   0.000000   0.000000   0.000000   0.000000   0.000000
   45  C  1 XYZ   0.000000   0.000000   0.000000   0.000000   0.000000
   46  C  1 XXX   0.000000   0.000000   0.000000   0.000000   0.000000
   47  C  1 YYY   0.000000   0.000000   0.000000   0.000000   0.000000
   48  C  1 ZZZ   0.000000   0.000000   0.000000   0.000000   0.000000
   49  C  1 XXY   0.000000   0.000000   0.000000   0.000000   0.000000
   50  C  1 XXZ   0.000000   0.000000   0.000000   0.000000   0.000000
   51  C  1 YYX   0.000000   0.000000   0.000000   0.000000   0.000000
   52  C  1 YYZ   0.000000   0.000000   0.000000   0.000000   0.000000
   53  C  1 ZZX   0.000000   0.000000   0.000000   0.000000   0.000000
   54  C  1 ZZY   0.000000   0.000000   0.000000   0.000000   0.000000
   55  C  1 XYZ   0.000000   0.000000   0.000000   0.000000   0.000000
   56  C  1XXXX   0.189064   0.000000   0.000000   0.000000   0.565199
   57  C  1YYYY   0.189064   0.000000   0.000000   0.000000   0.113040
   58  C  1ZZZZ   0.945319   0.000000   0.000000   0.000000   0.113040
   59  C  1XXXY   0.000000   0.866399   0.000000   0.000000   0.000000
   60  C  1XXXZ   0.000000   0.000000   0.866399   0.000000   0.000000
   61  C  1YYYX   0.000000   0.866399   0.000000   0.000000   0.000000
   62  C  1YYYZ   0.000000   0.000000   0.000000   0.866399   0.000000
   63  C  1ZZZX   0.000000   0.000000   0.866399   0.000000   0.000000
   64  C  1ZZZY   0.000000   0.000000   0.000000   0.866399   0.000000
   65  C  1XXYY   0.215259   0.000000   0.000000   0.000000   0.386105
   66  C  1XXZZ   0.645776   0.000000   0.000000   0.000000   0.386105
   67  C  1YYZZ   0.645776   0.000000   0.000000   0.000000   0.128702
   68  C  1XXYZ   0.000000   0.000000   0.000000   0.645776   0.000000
   69  C  1YYXZ   0.000000   0.000000   0.645776   0.000000   0.000000
   70  C  1ZZXY   0.000000   0.645776   0.000000   0.000000   0.000000
   71  C  1  S    0.038897   0.000000   0.000000   0.000000   0.007155
   72  C  1  S    0.007758   0.000000   0.000000   0.000000   0.001311
   73  C  1  S    0.001425   0.000000   0.000000   0.000000   0.000233
   74  C  1  X    0.000000   0.000000   0.000000   0.000000   0.000000
   75  C  1  Y    0.000000   0.000000   0.000000   0.000000   0.000000
   76  C  1  Z    0.000000   0.000000   0.000000   0.000000   0.000000
   77  C  1  X    0.000000   0.000000   0.000000   0.000000   0.000000
   78  C  1  Y    0.000000   0.000000   0.000000   0.000000   0.000000
   79  C  1  Z    0.000000   0.000000   0.000000   0.000000   0.000000
   80  C  1  X    0.000000   0.000000   0.000000   0.000000   0.000000
   81  C  1  Y    0.000000   0.000000   0.000000   0.000000   0.000000
   82  C  1  Z    0.000000   0.000000   0.000000   0.000000   0.000000
   83  C  1 XX    0.031456   0.000000   0.000000   0.000000   0.017790
   84  C  1 YY    0.031456   0.000000   0.000000   0.000000   0.005930
   85  C  1 ZZ    0.094369   0.000000   0.000000   0.000000   0.005930
   86  C  1 XY    0.000000   0.094369   0.000000   0.000000   0.000000
   87  C  1 XZ    0.000000   0.000000   0.094369   0.000000   0.000000
   88  C  1 YZ    0.000000   0.000000   0.000000   0.094369   0.000000
   89  C  1 XX    0.003599   0.000000   0.000000   0.000000   0.001808
   90  C  1 YY    0.003599   0.000000   0.000000   0.000000   0.000603
   91  C  1 ZZ    0.010798   0.000000   0.000000   0.000000   0.000603
   92  C  1 XY    0.000000   0.010798   0.000000   0.000000   0.000000
   93  C  1 XZ    0.000000   0.000000   0.010798   0.000000   0.000000
   94  C  1 YZ    0.000000   0.000000   0.000000   0.010798   0.000000
   95  C  1 XXX   0.000000   0.000000   0.000000   0.000000   0.000000
   96  C  1 YYY   0.000000   0.000000   0.000000   0.000000   0.000000
   97  C  1 ZZZ   0.000000   0.000000   0.000000   0.000000   0.000000
   98  C  1 XXY   0.000000   0.000000   0.000000   0.000000   0.000000
   99  C  1 XXZ   0.000000   0.000000   0.000000   0.000000   0.000000
  100  C  1 YYX   0.000000   0.000000   0.000000   0.000000   0.000000
  101  C  1 YYZ   0.000000   0.000000   0.000000   0.000000   0.000000
  102  C  1 ZZX   0.000000   0.000000   0.000000   0.000000   0.000000
  103  C  1 ZZY   0.000000   0.000000   0.000000   0.000000   0.000000
  104  C  1 XYZ   0.000000   0.000000   0.000000   0.000000   0.000000
  105  C  1  S    0.355431   0.000000   0.000000   0.000000   0.598892
  106  C  1  X    0.000000   0.000000   0.000000   0.000000   0.000000
  107  C  1  Y    0.000000   0.000000   0.000000   0.000000   0.000000
  108  C  1  Z    0.000000   0.000000   0.000000   0.000000   0.000000
  109  C  1 XX    0.060656   0.000000   0.000000   0.000000   0.608607
  110  C  1 YY    0.060656   0.000000   0.000000   0.000000   0.202869
  111  C  1 ZZ    0.181967   0.000000   0.000000   0.000000   0.202869
  112  C  1 XY    0.000000   0.181967   0.000000   0.000000   0.000000
  113  C  1 XZ    0.000000   0.000000   0.181967   0.000000   0.000000
  114  C  1 YZ    0.000000   0.000000   0.000000   0.181967   0.000000
  115  C  1 XXX   0.000000   0.000000   0.000000   0.000000   0.000000
  116  C  1 YYY   0.000000  -0.000000   0.000000   0.000000   0.000000
  117  C  1 ZZZ   0.000000   0.000000  -0.000000   0.000000   0.000000
  118  C  1 XXY   0.000000   0.000000   0.000000   0.000000   0.000000
  119  C  1 XXZ   0.000000   0.000000   0.000000   0.000000   0.000000
  120  C  1 YYX  -0.000000   0.000000   0.000000   0.000000   0.000000
  121  C  1 YYZ   0.000000   0.000000  -0.000000   0.000000   0.000000
  122  C  1 ZZX  -0.000000   0.000000   0.000000   0.000000   0.000000
  123  C  1 ZZY   0.000000  -0.000000   0.000000   0.000000   0.000000
  124  C  1 XYZ   0.000000   0.000000   0.000000  -0.000000   0.000000
  125  C  1XXXX   0.123477   0.000000   0.000000   0.000000   0.931320
  126  C  1YYYY   0.123477   0.000000   0.000000   0.000000   0.186264
  127  C  1ZZZZ   0.617386   0.000000   0.000000   0.000000   0.186264
  128  C  1XXXY   0.000000   0.565843   0.000000   0.000000   0.000000
  129  C  1XXXZ   0.000000   0.000000   0.565843   0.000000   0.000000
  130  C  1YYYX   0.000000   0.565843   0.000000   0.000000   0.000000
  131  C  1YYYZ   0.000000   0.000000   0.000000   0.565843   0.000000
  132  C  1ZZZX   0.000000   0.000000   0.565843   0.000000   0.000000
  133  C  1ZZZY   0.000000   0.000000   0.000000   0.565843   0.000000
  134  C  1XXYY   0.140585   0.000000   0.000000   0.000000   0.636213
  135  C  1XXZZ   0.421755   0.000000   0.000000   0.000000   0.636213
  136  C  1YYZZ   0.421755   0.000000   0.000000   0.000000   0.212071
  137  C  1XXYZ   0.000000   0.000000   0.000000   0.421755   0.000000
  138  C  1YYXZ   0.000000   0.000000   0.421755   0.000000   0.000000
  139  C  1ZZXY   0.000000   0.421755   0.000000   0.000000   0.000000

                     31         32         33         34         35

   31  C  1 YY    1.000000
   32  C  1 ZZ    0.333333   1.000000
   33  C  1 XY    0.000000   0.000000   1.000000
   34  C  1 XZ    0.000000   0.000000   0.000000   1.000000
   35  C  1 YZ    0.000000   0.000000   0.000000   0.000000   1.000000
   36  C  1 XXX   0.000000   0.000000   0.000000   0.000000   0.000000
   37  C  1 YYY   0.000000   0.000000   0.000000   0.000000   0.000000
   38  C  1 ZZZ   0.000000   0.000000   0.000000   0.000000   0.000000
   39  C  1 XXY   0.000000   0.000000   0.000000   0.000000   0.000000
   40  C  1 XXZ   0.000000   0.000000   0.000000   0.000000   0.000000
   41  C  1 YYX   0.000000   0.000000   0.000000   0.000000   0.000000
   42  C  1 YYZ   0.000000   0.000000   0.000000   0.000000   0.000000
   43  C  1 ZZX   0.000000   0.000000   0.000000   0.000000   0.000000
   44  C  1 ZZY   0.000000   0.000000   0.000000   0.000000   0.000000
   45  C  1 XYZ   0.000000   0.000000   0.000000   0.000000   0.000000
   46  C  1 XXX   0.000000   0.000000   0.000000   0.000000   0.000000
   47  C  1 YYY   0.000000   0.000000  -0.000000   0.000000   0.000000
   48  C  1 ZZZ   0.000000   0.000000   0.000000  -0.000000   0.000000
   49  C  1 XXY   0.000000   0.000000   0.000000   0.000000   0.000000
   50  C  1 XXZ   0.000000   0.000000   0.000000   0.000000   0.000000
   51  C  1 YYX  -0.000000  -0.000000   0.000000   0.000000   0.000000
   52  C  1 YYZ   0.000000   0.000000   0.000000  -0.000000   0.000000
   53  C  1 ZZX  -0.000000  -0.000000   0.000000   0.000000   0.000000
   54  C  1 ZZY   0.000000   0.000000  -0.000000   0.000000   0.000000
   55  C  1 XYZ   0.000000   0.000000   0.000000   0.000000  -0.000000
   56  C  1XXXX   0.113040   0.113040   0.000000   0.000000   0.000000
   57  C  1YYYY   0.565199   0.113040   0.000000   0.000000   0.000000
   58  C  1ZZZZ   0.113040   0.565199   0.000000   0.000000   0.000000
   59  C  1XXXY   0.000000   0.000000   0.518014   0.000000   0.000000
   60  C  1XXXZ   0.000000   0.000000   0.000000   0.518014   0.000000
   61  C  1YYYX   0.000000   0.000000   0.518014   0.000000   0.000000
   62  C  1YYYZ   0.000000   0.000000   0.000000   0.000000   0.518014
   63  C  1ZZZX   0.000000   0.000000   0.000000   0.518014   0.000000
   64  C  1ZZZY   0.000000   0.000000   0.000000   0.000000   0.518014
   65  C  1XXYY   0.386105   0.128702   0.000000   0.000000   0.000000
   66  C  1XXZZ   0.128702   0.386105   0.000000   0.000000   0.000000
   67  C  1YYZZ   0.386105   0.386105   0.000000   0.000000   0.000000
   68  C  1XXYZ   0.000000   0.000000   0.000000   0.000000   0.386105
   69  C  1YYXZ   0.000000   0.000000   0.000000   0.386105   0.000000
   70  C  1ZZXY   0.000000   0.000000   0.386105   0.000000   0.000000
   71  C  1  S    0.007155   0.007155   0.000000   0.000000   0.000000
   72  C  1  S    0.001311   0.001311   0.000000   0.000000   0.000000
   73  C  1  S    0.000233   0.000233   0.000000   0.000000   0.000000
   74  C  1  X    0.000000   0.000000   0.000000   0.000000   0.000000
   75  C  1  Y    0.000000   0.000000   0.000000   0.000000   0.000000
   76  C  1  Z    0.000000   0.000000   0.000000   0.000000   0.000000
   77  C  1  X   -0.000000  -0.000000   0.000000   0.000000   0.000000
   78  C  1  Y    0.000000   0.000000  -0.000000   0.000000   0.000000
   79  C  1  Z    0.000000   0.000000   0.000000  -0.000000   0.000000
   80  C  1  X    0.000000   0.000000   0.000000   0.000000   0.000000
   81  C  1  Y    0.000000   0.000000   0.000000   0.000000   0.000000
   82  C  1  Z    0.000000   0.000000   0.000000   0.000000   0.000000
   83  C  1 XX    0.005930   0.005930   0.000000   0.000000   0.000000
   84  C  1 YY    0.017790   0.005930   0.000000   0.000000   0.000000
   85  C  1 ZZ    0.005930   0.017790   0.000000   0.000000   0.000000
   86  C  1 XY    0.000000   0.000000   0.017790   0.000000   0.000000
   87  C  1 XZ    0.000000   0.000000   0.000000   0.017790   0.000000
   88  C  1 YZ    0.000000   0.000000   0.000000   0.000000   0.017790
   89  C  1 XX    0.000603   0.000603   0.000000   0.000000   0.000000
   90  C  1 YY    0.001808   0.000603   0.000000   0.000000   0.000000
   91  C  1 ZZ    0.000603   0.001808   0.000000   0.000000   0.000000
   92  C  1 XY    0.000000   0.000000   0.001808   0.000000   0.000000
   93  C  1 XZ    0.000000   0.000000   0.000000   0.001808   0.000000
   94  C  1 YZ    0.000000   0.000000   0.000000   0.000000   0.001808
   95  C  1 XXX   0.000000   0.000000   0.000000   0.000000   0.000000
   96  C  1 YYY   0.000000   0.000000   0.000000   0.000000   0.000000
   97  C  1 ZZZ   0.000000   0.000000   0.000000   0.000000   0.000000
   98  C  1 XXY   0.000000   0.000000   0.000000   0.000000   0.000000
   99  C  1 XXZ   0.000000   0.000000   0.000000   0.000000   0.000000
  100  C  1 YYX   0.000000   0.000000   0.000000   0.000000   0.000000
  101  C  1 YYZ   0.000000   0.000000   0.000000   0.000000   0.000000
  102  C  1 ZZX   0.000000   0.000000   0.000000   0.000000   0.000000
  103  C  1 ZZY   0.000000   0.000000   0.000000   0.000000   0.000000
  104  C  1 XYZ   0.000000   0.000000   0.000000   0.000000   0.000000
  105  C  1  S    0.598892   0.598892   0.000000   0.000000   0.000000
  106  C  1  X   -0.000000  -0.000000   0.000000   0.000000   0.000000
  107  C  1  Y    0.000000   0.000000  -0.000000   0.000000   0.000000
  108  C  1  Z    0.000000   0.000000   0.000000  -0.000000   0.000000
  109  C  1 XX    0.202869   0.202869   0.000000   0.000000   0.000000
  110  C  1 YY    0.608607   0.202869   0.000000   0.000000   0.000000
  111  C  1 ZZ    0.202869   0.608607   0.000000   0.000000   0.000000
  112  C  1 XY    0.000000   0.000000   0.608607   0.000000   0.000000
  113  C  1 XZ    0.000000   0.000000   0.000000   0.608607   0.000000
  114  C  1 YZ    0.000000   0.000000   0.000000   0.000000   0.608607
  115  C  1 XXX   0.000000   0.000000   0.000000   0.000000   0.000000
  116  C  1 YYY   0.000000   0.000000  -0.000000   0.000000   0.000000
  117  C  1 ZZZ   0.000000   0.000000   0.000000  -0.000000   0.000000
  118  C  1 XXY   0.000000   0.000000   0.000000   0.000000   0.000000
  119  C  1 XXZ   0.000000   0.000000   0.000000   0.000000   0.000000
  120  C  1 YYX  -0.000000  -0.000000   0.000000   0.000000   0.000000
  121  C  1 YYZ   0.000000   0.000000   0.000000  -0.000000   0.000000
  122  C  1 ZZX  -0.000000  -0.000000   0.000000   0.000000   0.000000
  123  C  1 ZZY   0.000000   0.000000  -0.000000   0.000000   0.000000
  124  C  1 XYZ   0.000000   0.000000   0.000000   0.000000  -0.000000
  125  C  1XXXX   0.186264   0.186264   0.000000   0.000000   0.000000
  126  C  1YYYY   0.931320   0.186264   0.000000   0.000000   0.000000
  127  C  1ZZZZ   0.186264   0.931320   0.000000   0.000000   0.000000
  128  C  1XXXY   0.000000   0.000000   0.853569   0.000000   0.000000
  129  C  1XXXZ   0.000000   0.000000   0.000000   0.853569   0.000000
  130  C  1YYYX   0.000000   0.000000   0.853569   0.000000   0.000000
  131  C  1YYYZ   0.000000   0.000000   0.000000   0.000000   0.853569
  132  C  1ZZZX   0.000000   0.000000   0.000000   0.853569   0.000000
  133  C  1ZZZY   0.000000   0.000000   0.000000   0.000000   0.853569
  134  C  1XXYY   0.636213   0.212071   0.000000   0.000000   0.000000
  135  C  1XXZZ   0.212071   0.636213   0.000000   0.000000   0.000000
  136  C  1YYZZ   0.636213   0.636213   0.000000   0.000000   0.000000
  137  C  1XXYZ   0.000000   0.000000   0.000000   0.000000   0.636213
  138  C  1YYXZ   0.000000   0.000000   0.000000   0.636213   0.000000
  139  C  1ZZXY   0.000000   0.000000   0.636213   0.000000   0.000000

                     36         37         38         39         40

   36  C  1 XXX   1.000000
   37  C  1 YYY   0.000000   1.000000
   38  C  1 ZZZ   0.000000   0.000000   1.000000
   39  C  1 XXY   0.000000   0.447214   0.000000   1.000000
   40  C  1 XXZ   0.000000   0.000000   0.447214   0.000000   1.000000
   41  C  1 YYX   0.447214   0.000000   0.000000   0.000000   0.000000
   42  C  1 YYZ   0.000000   0.000000   0.447214   0.000000   0.333333
   43  C  1 ZZX   0.447214   0.000000   0.000000   0.000000   0.000000
   44  C  1 ZZY   0.000000   0.447214   0.000000   0.333333   0.000000
   45  C  1 XYZ   0.000000   0.000000   0.000000   0.000000   0.000000
   46  C  1 XXX   0.538286   0.000000   0.000000   0.000000   0.000000
   47  C  1 YYY   0.000000   0.538286   0.000000   0.240729   0.000000
   48  C  1 ZZZ   0.000000   0.000000   0.538286   0.000000   0.240729
   49  C  1 XXY   0.000000   0.240729   0.000000   0.538286   0.000000
   50  C  1 XXZ   0.000000   0.000000   0.240729   0.000000   0.538286
   51  C  1 YYX   0.240729   0.000000   0.000000   0.000000   0.000000
   52  C  1 YYZ   0.000000   0.000000   0.240729   0.000000   0.179429
   53  C  1 ZZX   0.240729   0.000000   0.000000   0.000000   0.000000
   54  C  1 ZZY   0.000000   0.240729   0.000000   0.179429   0.000000
   55  C  1 XYZ   0.000000   0.000000   0.000000   0.000000   0.000000
   56  C  1XXXX   0.000000   0.000000   0.000000   0.000000   0.000000
   57  C  1YYYY   0.000000   0.000000   0.000000   0.000000   0.000000
   58  C  1ZZZZ   0.000000   0.000000   0.000000   0.000000   0.000000
   59  C  1XXXY   0.000000   0.000000   0.000000   0.000000   0.000000
   60  C  1XXXZ   0.000000   0.000000   0.000000   0.000000   0.000000
   61  C  1YYYX   0.000000   0.000000   0.000000   0.000000   0.000000
   62  C  1YYYZ   0.000000   0.000000   0.000000   0.000000   0.000000
   63  C  1ZZZX   0.000000   0.000000   0.000000   0.000000   0.000000
   64  C  1ZZZY   0.000000   0.000000   0.000000   0.000000   0.000000
   65  C  1XXYY   0.000000   0.000000   0.000000   0.000000   0.000000
   66  C  1XXZZ   0.000000   0.000000   0.000000   0.000000   0.000000
   67  C  1YYZZ   0.000000   0.000000   0.000000   0.000000   0.000000
   68  C  1XXYZ   0.000000   0.000000   0.000000   0.000000   0.000000
   69  C  1YYXZ   0.000000   0.000000   0.000000   0.000000   0.000000
   70  C  1ZZXY   0.000000   0.000000   0.000000   0.000000   0.000000
   71  C  1  S    0.000000   0.000000   0.000000   0.000000   0.000000
   72  C  1  S    0.000000   0.000000   0.000000   0.000000   0.000000
   73  C  1  S    0.000000   0.000000   0.000000   0.000000   0.000000
   74  C  1  X    0.097187   0.000000   0.000000   0.000000   0.000000
   75  C  1  Y    0.000000   0.097187   0.000000   0.072439   0.000000
   76  C  1  Z    0.000000   0.000000   0.097187   0.000000   0.072439
   77  C  1  X    0.012161   0.000000   0.000000   0.000000   0.000000
   78  C  1  Y    0.000000   0.012161   0.000000   0.009064   0.000000
   79  C  1  Z    0.000000   0.000000   0.012161   0.000000   0.009064
   80  C  1  X    0.001210   0.000000   0.000000   0.000000   0.000000
   81  C  1  Y    0.000000   0.001210   0.000000   0.000902   0.000000
   82  C  1  Z    0.000000   0.000000   0.001210   0.000000   0.000902
   83  C  1 XX    0.000000   0.000000   0.000000   0.000000   0.000000
   84  C  1 YY    0.000000   0.000000   0.000000   0.000000   0.000000
   85  C  1 ZZ    0.000000   0.000000   0.000000   0.000000   0.000000
   86  C  1 XY    0.000000   0.000000   0.000000   0.000000   0.000000
   87  C  1 XZ    0.000000   0.000000   0.000000   0.000000   0.000000
   88  C  1 YZ    0.000000   0.000000   0.000000   0.000000   0.000000
   89  C  1 XX    0.000000   0.000000   0.000000   0.000000   0.000000
   90  C  1 YY    0.000000   0.000000   0.000000   0.000000   0.000000
   91  C  1 ZZ    0.000000   0.000000   0.000000   0.000000   0.000000
   92  C  1 XY    0.000000   0.000000   0.000000   0.000000   0.000000
   93  C  1 XZ    0.000000   0.000000   0.000000   0.000000   0.000000
   94  C  1 YZ    0.000000   0.000000   0.000000   0.000000   0.000000
   95  C  1 XXX   0.028449   0.000000   0.000000   0.000000   0.000000
   96  C  1 YYY   0.000000   0.028449   0.000000   0.012723   0.000000
   97  C  1 ZZZ   0.000000   0.000000   0.028449   0.000000   0.012723
   98  C  1 XXY   0.000000   0.012723   0.000000   0.028449   0.000000
   99  C  1 XXZ   0.000000   0.000000   0.012723   0.000000   0.028449
  100  C  1 YYX   0.012723   0.000000   0.000000   0.000000   0.000000
  101  C  1 YYZ   0.000000   0.000000   0.012723   0.000000   0.009483
  102  C  1 ZZX   0.012723   0.000000   0.000000   0.000000   0.000000
  103  C  1 ZZY   0.000000   0.012723   0.000000   0.009483   0.000000
  104  C  1 XYZ   0.000000   0.000000   0.000000   0.000000   0.000000
  105  C  1  S    0.000000   0.000000   0.000000   0.000000   0.000000
  106  C  1  X    0.071302   0.000000   0.000000   0.000000   0.000000
  107  C  1  Y    0.000000   0.071302   0.000000   0.053145   0.000000
  108  C  1  Z    0.000000   0.000000   0.071302   0.000000   0.053145
  109  C  1 XX    0.000000   0.000000   0.000000   0.000000   0.000000
  110  C  1 YY    0.000000   0.000000   0.000000   0.000000   0.000000
  111  C  1 ZZ    0.000000   0.000000   0.000000   0.000000   0.000000
  112  C  1 XY    0.000000   0.000000   0.000000   0.000000   0.000000
  113  C  1 XZ    0.000000   0.000000   0.000000   0.000000   0.000000
  114  C  1 YZ    0.000000   0.000000   0.000000   0.000000   0.000000
  115  C  1 XXX   0.135639   0.000000   0.000000   0.000000   0.000000
  116  C  1 YYY   0.000000   0.135639   0.000000   0.060660   0.000000
  117  C  1 ZZZ   0.000000   0.000000   0.135639   0.000000   0.060660
  118  C  1 XXY   0.000000   0.060660   0.000000   0.135639   0.000000
[...]
  122  C  1 ZZX   0.000000   0.000000   0.000000   0.000000   0.000000
  123  C  1 ZZY   0.000000   0.000000   0.000000   0.000000   0.000000
  124  C  1 XYZ   0.000000   0.000000   0.000000   0.000000   0.000000
  125  C  1XXXX   0.000000   0.000000   0.000000   0.000000  -0.000000
  126  C  1YYYY   0.000000   0.000000   0.000000   0.000000   0.000000
  127  C  1ZZZZ   0.000000   0.000000   0.000000   0.000000   0.000000
  128  C  1XXXY   0.000000   0.000000   0.000000   0.000000   0.000000
  129  C  1XXXZ   0.000000   0.000000   0.000000   0.000000  -0.000000
  130  C  1YYYX   0.000000   0.000000   0.000000   0.000000   0.000000
  131  C  1YYYZ   0.000000   0.000000   0.000000   0.000000   0.000000
  132  C  1ZZZX   0.000000   0.000000   0.000000   0.000000   0.000000
  133  C  1ZZZY   0.000000   0.000000   0.000000   0.000000   0.000000
  134  C  1XXYY   0.000000   0.000000   0.000000   0.000000   0.000000
  135  C  1XXZZ   0.000000   0.000000   0.000000   0.000000   0.000000
  136  C  1YYZZ   0.000000   0.000000   0.000000   0.000000   0.000000
  137  C  1XXYZ   0.000000   0.000000   0.000000   0.000000   0.000000
  138  C  1YYXZ   0.000000   0.000000   0.000000   0.000000   0.000000
  139  C  1ZZXY   0.000000   0.000000   0.000000   0.000000   0.000000

                    106        107        108        109        110

  106  C  1  X    0.001131
  107  C  1  Y    0.000000   0.000000
  108  C  1  Z    0.000000   0.000000   0.000000
  109  C  1 XX    0.000000   0.000000   0.000000   0.000010
  110  C  1 YY    0.000000   0.000000   0.000000  -0.000000   0.000030
  111  C  1 ZZ    0.000000   0.000000   0.000000   0.000000   0.000000
  112  C  1 XY    0.000000   0.000000   0.000000   0.000000   0.000000
  113  C  1 XZ    0.000000   0.000000   0.000000   0.000000   0.000000
  114  C  1 YZ    0.000000   0.000000   0.000000   0.000000   0.000000
  115  C  1 XXX  -0.000000   0.000000   0.000000   0.000000   0.000000
  116  C  1 YYY   0.000000   0.000000   0.000000   0.000000   0.000000
  117  C  1 ZZZ   0.000000   0.000000   0.000000   0.000000   0.000000
  118  C  1 XXY   0.000000   0.000000   0.000000   0.000000   0.000000
  119  C  1 XXZ   0.000000   0.000000   0.000000   0.000000   0.000000
  120  C  1 YYX   0.000000   0.000000   0.000000   0.000000   0.000000
  121  C  1 YYZ   0.000000   0.000000   0.000000   0.000000   0.000000
  122  C  1 ZZX   0.000000   0.000000   0.000000   0.000000   0.000000
  123  C  1 ZZY   0.000000   0.000000   0.000000   0.000000   0.000000
  124  C  1 XYZ   0.000000   0.000000   0.000000   0.000000   0.000000
  125  C  1XXXX   0.000000   0.000000   0.000000   0.000000  -0.000000
  126  C  1YYYY   0.000000   0.000000   0.000000   0.000000   0.000000
  127  C  1ZZZZ   0.000000   0.000000   0.000000  -0.000000   0.000000
  128  C  1XXXY   0.000000   0.000000   0.000000   0.000000   0.000000
  129  C  1XXXZ   0.000000   0.000000   0.000000   0.000000  -0.000000
  130  C  1YYYX   0.000000   0.000000   0.000000   0.000000   0.000000
  131  C  1YYYZ   0.000000   0.000000   0.000000   0.000000   0.000000
  132  C  1ZZZX   0.000000   0.000000   0.000000   0.000000   0.000000
  133  C  1ZZZY   0.000000   0.000000   0.000000   0.000000   0.000000
  134  C  1XXYY   0.000000   0.000000   0.000000   0.000000   0.000000
  135  C  1XXZZ   0.000000   0.000000   0.000000   0.000000   0.000000
  136  C  1YYZZ   0.000000   0.000000   0.000000   0.000000   0.000000
  137  C  1XXYZ   0.000000   0.000000   0.000000   0.000000   0.000000
  138  C  1YYXZ   0.000000   0.000000   0.000000   0.000000   0.000000
  139  C  1ZZXY   0.000000   0.000000   0.000000   0.000000   0.000000

                    111        112        113        114        115

  111  C  1 ZZ    0.000000
  112  C  1 XY    0.000000   0.000000
  113  C  1 XZ    0.000000   0.000000   0.000000
  114  C  1 YZ    0.000000   0.000000   0.000000   0.000000
  115  C  1 XXX   0.000000   0.000000   0.000000   0.000000   0.000075
  116  C  1 YYY   0.000000   0.000000   0.000000   0.000000   0.000000
  117  C  1 ZZZ   0.000000   0.000000   0.000000   0.000000  -0.000000
  118  C  1 XXY   0.000000   0.000000   0.000000   0.000000   0.000000
  119  C  1 XXZ   0.000000   0.000000   0.000000   0.000000   0.000000
  120  C  1 YYX   0.000000   0.000000   0.000000   0.000000   0.000000
  121  C  1 YYZ   0.000000   0.000000   0.000000   0.000000   0.000000
  122  C  1 ZZX   0.000000   0.000000   0.000000   0.000000   0.000000
  123  C  1 ZZY   0.000000   0.000000   0.000000   0.000000   0.000000
  124  C  1 XYZ   0.000000   0.000000   0.000000   0.000000   0.000000
  125  C  1XXXX   0.000000   0.000000   0.000000   0.000000   0.000000
  126  C  1YYYY   0.000000   0.000000   0.000000   0.000000   0.000000
  127  C  1ZZZZ   0.000000   0.000000   0.000000   0.000000   0.000000
  128  C  1XXXY   0.000000   0.000000   0.000000   0.000000   0.000000
  129  C  1XXXZ   0.000000   0.000000   0.000000   0.000000   0.000000
  130  C  1YYYX   0.000000   0.000000   0.000000   0.000000   0.000000
  131  C  1YYYZ   0.000000   0.000000   0.000000   0.000000   0.000000
  132  C  1ZZZX   0.000000   0.000000   0.000000   0.000000   0.000000
  133  C  1ZZZY   0.000000   0.000000   0.000000   0.000000   0.000000
  134  C  1XXYY   0.000000   0.000000   0.000000   0.000000   0.000000
  135  C  1XXZZ   0.000000   0.000000   0.000000   0.000000   0.000000
  136  C  1YYZZ   0.000000   0.000000   0.000000   0.000000   0.000000
  137  C  1XXYZ   0.000000   0.000000   0.000000   0.000000   0.000000
  138  C  1YYXZ   0.000000   0.000000   0.000000   0.000000   0.000000
  139  C  1ZZXY   0.000000   0.000000   0.000000   0.000000   0.000000

                    116        117        118        119        120

  116  C  1 YYY   0.000000
  117  C  1 ZZZ   0.000000   0.000045
  118  C  1 XXY   0.000000   0.000000   0.000000
  119  C  1 XXZ   0.000000   0.000000   0.000000   0.000000
  120  C  1 YYX   0.000000   0.000000   0.000000   0.000000   0.000000
  121  C  1 YYZ   0.000000   0.000000   0.000000   0.000000   0.000000
  122  C  1 ZZX   0.000000   0.000000   0.000000   0.000000   0.000000
  123  C  1 ZZY   0.000000   0.000000   0.000000   0.000000   0.000000
  124  C  1 XYZ   0.000000   0.000000   0.000000   0.000000   0.000000
  125  C  1XXXX   0.000000   0.000000   0.000000   0.000000   0.000000
  126  C  1YYYY   0.000000   0.000000   0.000000   0.000000   0.000000
  127  C  1ZZZZ   0.000000   0.000000   0.000000   0.000000   0.000000
  128  C  1XXXY   0.000000   0.000000   0.000000   0.000000   0.000000
  129  C  1XXXZ   0.000000   0.000000   0.000000   0.000000   0.000000
  130  C  1YYYX   0.000000   0.000000   0.000000   0.000000   0.000000
  131  C  1YYYZ   0.000000   0.000000   0.000000   0.000000   0.000000
  132  C  1ZZZX   0.000000   0.000000   0.000000   0.000000   0.000000
  133  C  1ZZZY   0.000000   0.000000   0.000000   0.000000   0.000000
  134  C  1XXYY   0.000000   0.000000   0.000000   0.000000   0.000000
  135  C  1XXZZ   0.000000   0.000000   0.000000   0.000000   0.000000
  136  C  1YYZZ   0.000000   0.000000   0.000000   0.000000   0.000000
  137  C  1XXYZ   0.000000   0.000000   0.000000   0.000000   0.000000
  138  C  1YYXZ   0.000000   0.000000   0.000000   0.000000   0.000000
  139  C  1ZZXY   0.000000   0.000000   0.000000   0.000000   0.000000

                    121        122        123        124        125

  121  C  1 YYZ   0.000000
  122  C  1 ZZX   0.000000   0.000000
  123  C  1 ZZY   0.000000   0.000000   0.000000
  124  C  1 XYZ   0.000000   0.000000   0.000000   0.000000
  125  C  1XXXX   0.000000   0.000000   0.000000   0.000000   0.000000
  126  C  1YYYY   0.000000   0.000000   0.000000   0.000000   0.000000
  127  C  1ZZZZ   0.000000   0.000000   0.000000   0.000000  -0.000000
  128  C  1XXXY   0.000000   0.000000   0.000000   0.000000   0.000000
  129  C  1XXXZ   0.000000   0.000000   0.000000   0.000000   0.000000
  130  C  1YYYX   0.000000   0.000000   0.000000   0.000000   0.000000
  131  C  1YYYZ   0.000000   0.000000   0.000000   0.000000   0.000000
  132  C  1ZZZX   0.000000   0.000000   0.000000   0.000000   0.000000
  133  C  1ZZZY   0.000000   0.000000   0.000000   0.000000   0.000000
  134  C  1XXYY   0.000000   0.000000   0.000000   0.000000   0.000000
  135  C  1XXZZ   0.000000   0.000000   0.000000   0.000000   0.000000
  136  C  1YYZZ   0.000000   0.000000   0.000000   0.000000   0.000000
  137  C  1XXYZ   0.000000   0.000000   0.000000   0.000000   0.000000
  138  C  1YYXZ   0.000000   0.000000   0.000000   0.000000   0.000000
  139  C  1ZZXY   0.000000   0.000000   0.000000   0.000000   0.000000

                    126        127        128        129        130

  126  C  1YYYY   0.000000
  127  C  1ZZZZ   0.000000   0.000000
  128  C  1XXXY   0.000000   0.000000   0.000000
  129  C  1XXXZ   0.000000  -0.000000   0.000000   0.000000
  130  C  1YYYX   0.000000   0.000000   0.000000   0.000000   0.000000
  131  C  1YYYZ   0.000000   0.000000   0.000000   0.000000   0.000000
  132  C  1ZZZX   0.000000   0.000000   0.000000   0.000000   0.000000
  133  C  1ZZZY   0.000000   0.000000   0.000000   0.000000   0.000000
  134  C  1XXYY   0.000000   0.000000   0.000000   0.000000   0.000000
  135  C  1XXZZ   0.000000   0.000000   0.000000   0.000000   0.000000
  136  C  1YYZZ   0.000000   0.000000   0.000000   0.000000   0.000000
  137  C  1XXYZ   0.000000   0.000000   0.000000   0.000000   0.000000
  138  C  1YYXZ   0.000000   0.000000   0.000000   0.000000   0.000000
  139  C  1ZZXY   0.000000   0.000000   0.000000   0.000000   0.000000

                    131        132        133        134        135

  131  C  1YYYZ   0.000000
  132  C  1ZZZX   0.000000   0.000000
  133  C  1ZZZY   0.000000   0.000000   0.000000
  134  C  1XXYY   0.000000   0.000000   0.000000   0.000000
  135  C  1XXZZ   0.000000   0.000000   0.000000   0.000000   0.000000
  136  C  1YYZZ   0.000000   0.000000   0.000000   0.000000   0.000000
  137  C  1XXYZ   0.000000   0.000000   0.000000   0.000000   0.000000
  138  C  1YYXZ   0.000000   0.000000   0.000000   0.000000   0.000000
  139  C  1ZZXY   0.000000   0.000000   0.000000   0.000000   0.000000

                    136        137        138        139

  136  C  1YYZZ   0.000000
  137  C  1XXYZ   0.000000   0.000000
  138  C  1YYXZ   0.000000   0.000000   0.000000
  139  C  1ZZXY   0.000000   0.000000   0.000000   0.000000

               ----- POPULATIONS IN EACH AO -----
                             MULLIKEN      LOWDIN
              1  C  1  S      1.98725     0.33935
              2  C  1  S     -0.03165     0.31296
              3  C  1  S      0.43727     0.21160
              4  C  1  S      1.12746     0.22227
              5  C  1  S      0.47505     0.15873
              6  C  1  X      0.17536     0.15332
              7  C  1  Y      0.00000     0.00000
              8  C  1  Z      0.00000     0.00000
              9  C  1  X      0.55116     0.28639
             10  C  1  Y      0.00000     0.00000
             11  C  1  Z      0.00000     0.00000
             12  C  1  X      0.82867     0.30734
             13  C  1  Y      0.00000     0.00000
             14  C  1  Z      0.00000     0.00000
             15  C  1  X      0.42625     0.18656
             16  C  1  Y      0.00000     0.00000
             17  C  1  Z      0.00000     0.00000
             18  C  1 XX      0.00000     0.10619
             19  C  1 YY      0.00001     0.10380
             20  C  1 ZZ      0.00000     0.10380
             21  C  1 XY      0.00000     0.00000
             22  C  1 XZ      0.00000     0.00000
             23  C  1 YZ      0.00000     0.00000
             24  C  1 XX     -0.00000     0.10999
             25  C  1 YY     -0.00000     0.10741
             26  C  1 ZZ      0.00000     0.10741
             27  C  1 XY      0.00000     0.00000
             28  C  1 XZ      0.00000     0.00000
             29  C  1 YZ      0.00000     0.00000
             30  C  1 XX      0.00005     0.05474
             31  C  1 YY      0.00014     0.04957
             32  C  1 ZZ      0.00000     0.04957
             33  C  1 XY      0.00000     0.00000
             34  C  1 XZ      0.00000     0.00000
             35  C  1 YZ      0.00000     0.00000
             36  C  1 XXX     0.00005     0.19440
             37  C  1 YYY     0.00000     0.00000
             38  C  1 ZZZ     0.00003     0.00000
             39  C  1 XXY     0.00000     0.00000
             40  C  1 XXZ     0.00000     0.00000
             41  C  1 YYX     0.00000     0.08872
             42  C  1 YYZ     0.00000     0.00000
             43  C  1 ZZX     0.00000     0.08872
             44  C  1 ZZY     0.00000     0.00000
             45  C  1 XYZ     0.00000     0.00000
             46  C  1 XXX     0.00019     0.21623
             47  C  1 YYY     0.00000     0.00000
             48  C  1 ZZZ     0.00011     0.00000
             49  C  1 XXY     0.00000     0.00000
             50  C  1 XXZ     0.00000     0.00000
             51  C  1 YYX     0.00000     0.09961
             52  C  1 YYZ     0.00000     0.00000
             53  C  1 ZZX     0.00000     0.09961
             54  C  1 ZZY     0.00000     0.00000
             55  C  1 XYZ     0.00000     0.00000
             56  C  1XXXX     0.00000     0.06398
             57  C  1YYYY     0.00000     0.06217
             58  C  1ZZZZ     0.00000     0.06217
             59  C  1XXXY     0.00000     0.00000
             60  C  1XXXZ     0.00000     0.00000
             61  C  1YYYX     0.00000     0.00000
             62  C  1YYYZ     0.00000     0.00000
             63  C  1ZZZX     0.00000     0.00000
             64  C  1ZZZY     0.00000     0.00000
             65  C  1XXYY     0.00000     0.06677
             66  C  1XXZZ     0.00000     0.06677
             67  C  1YYZZ     0.00000     0.06573
             68  C  1XXYZ     0.00000     0.00000
             69  C  1YYXZ     0.00000     0.00000
             70  C  1ZZXY     0.00000     0.00000
             71  C  1  S      0.00083     0.28673
             72  C  1  S     -0.00001     0.25297
             73  C  1  S      0.00004     0.19468
             74  C  1  X      0.00009     0.02189
             75  C  1  Y      0.00000     0.00000
             76  C  1  Z      0.00000     0.00000
             77  C  1  X     -0.00007     0.00087
             78  C  1  Y      0.00000     0.00000
             79  C  1  Z      0.00000     0.00000
             80  C  1  X      0.00002     0.00006
             81  C  1  Y      0.00000     0.00000
             82  C  1  Z      0.00000     0.00000
             83  C  1 XX      0.00000     0.08988
             84  C  1 YY      0.00000     0.09029
             85  C  1 ZZ      0.00000     0.09029
             86  C  1 XY      0.00000     0.00000
             87  C  1 XZ      0.00000     0.00000
             88  C  1 YZ      0.00000     0.00000
             89  C  1 XX     -0.00000     0.10088
             90  C  1 YY     -0.00000     0.10106
             91  C  1 ZZ      0.00000     0.10106
             92  C  1 XY      0.00000     0.00000
             93  C  1 XZ      0.00000     0.00000
             94  C  1 YZ      0.00000     0.00000
             95  C  1 XXX     0.00000     0.00228
             96  C  1 YYY     0.00000     0.00000
             97  C  1 ZZZ     0.00000     0.00000
             98  C  1 XXY     0.00000     0.00000
             99  C  1 XXZ     0.00000     0.00000
            100  C  1 YYX     0.00000     0.00122
            101  C  1 YYZ     0.00000     0.00000
            102  C  1 ZZX     0.00000     0.00122
            103  C  1 ZZY     0.00000     0.00000
            104  C  1 XYZ     0.00000     0.00000
            105  C  1  S      0.00346     0.05367
            106  C  1  X      0.01792     0.03898
            107  C  1  Y      0.00000     0.00000
            108  C  1  Z      0.00000     0.00000
            109  C  1 XX      0.00002     0.00710
            110  C  1 YY      0.00006     0.00530
            111  C  1 ZZ      0.00000     0.00530
            112  C  1 XY      0.00000     0.00000
            113  C  1 XZ      0.00000     0.00000
            114  C  1 YZ      0.00000     0.00000
            115  C  1 XXX     0.00014     0.10875
            116  C  1 YYY     0.00000     0.00000
            117  C  1 ZZZ     0.00008     0.00000
            118  C  1 XXY     0.00000     0.00000
            119  C  1 XXZ     0.00000     0.00000
            120  C  1 YYX     0.00000     0.05190
            121  C  1 YYZ     0.00000     0.00000
            122  C  1 ZZX     0.00000     0.05190
            123  C  1 ZZY     0.00000     0.00000
            124  C  1 XYZ     0.00000     0.00000
            125  C  1XXXX     0.00000     0.03444
            126  C  1YYYY     0.00000     0.03101
            127  C  1ZZZZ     0.00000     0.03101
            128  C  1XXXY     0.00000     0.00000
            129  C  1XXXZ     0.00000     0.00000
            130  C  1YYYX     0.00000     0.00000
            131  C  1YYYZ     0.00000     0.00000
            132  C  1ZZZX     0.00000     0.00000
            133  C  1ZZZY     0.00000     0.00000
            134  C  1XXYY     0.00000     0.03375
            135  C  1XXZZ     0.00000     0.03375
            136  C  1YYZZ     0.00000     0.03186
            137  C  1XXYZ     0.00000     0.00000
            138  C  1YYXZ     0.00000     0.00000
            139  C  1ZZXY     0.00000     0.00000

          ----- MULLIKEN ATOMIC OVERLAP POPULATIONS -----
          (OFF-DIAGONAL ELEMENTS NEED TO BE MULTIPLIED BY 2)

             1

    1    6.0000000

          TOTAL MULLIKEN AND LOWDIN ATOMIC POPULATIONS
       ATOM         MULL.POP.                    LOW.POP.

          TOTAL MULLIKEN AND LOWDIN ATOMIC POPULATIONS
       ATOM         MULL.POP.    CHARGE          LOW.POP.     CHARGE
    1 C             6.000000                     6.000000
    1 C             6.000000   -0.000000         6.000000   -0.000000

          MULLIKEN SPHERICAL HARMONIC POPULATIONS
       ATOM           S       P       D      F      G      H      I    TOTAL
    1 C             4.00    2.00    0.00   0.00   0.00   0.00   0.00    6.00

          -------------------------------
          BOND ORDER AND VALENCE ANALYSIS     BOND ORDER THRESHOLD=0.050
          -------------------------------

                   BOND                       BOND                       BOND
  ATOM PAIR DIST  ORDER      ATOM PAIR DIST  ORDER      ATOM PAIR DIST  ORDER

                       TOTAL       BONDED        FREE
      ATOM            VALENCE     VALENCE     VALENCE
    1 C                -0.000       0.000      -0.000

          ---------------------
          ELECTROSTATIC MOMENTS
          ---------------------

 POINT   1           X           Y           Z (BOHR)    CHARGE
                 0.000000    0.000000    0.000000       -0.00 (A.U.)
         DX          DY          DZ         /D/  (DEBYE)
    -0.000000    0.000000    0.000000    0.000000
 ...... END OF PROPERTY EVALUATION ......
 STEP CPU TIME =     0.05 TOTAL CPU TIME =        3.0 (    0.1 MIN)
 TOTAL WALL CLOCK TIME=        3.0 SECONDS, CPU UTILIZATION IS  99.67%
               580000  WORDS OF DYNAMIC MEMORY USED
 EXECUTION OF GAMESS TERMINATED NORMALLY Thu Nov 29 10:43:44 2012
 DDI: 263624 bytes (0.3 MB / 0 MWords) used by master data server.

 ----------------------------------------
 CPU timing information for all processes
 ========================================
 0: 2.716 + 0.308 = 3.24
 ----------------------------------------
 ddikick.x: exited gracefully.
----- accounting info -----
Files used on the master node fwnc7111 were:
-rw-r--r-- 1 kml kml      236 Nov 29 10:43 /home/kml/C_bigbasis.F05
-rw-r--r-- 1 kml kml 73266512 Nov 29 10:43 /home/kml/C_bigbasis.F08
-rw-r--r-- 1 kml kml  2388560 Nov 29 10:43 /home/kml/C_bigbasis.F10
Thu Nov 29 10:43:48 CET 2012
0.0u 0.0s 0:06.93 0.5% 0+0k 0+24io 0pf+0w
