----- GAMESS execution script 'rungms' -----
This job is running on host copper
under operating system Linux at Sun Jul 24 18:36:29 EDT 2016
Available scratch disk space (Kbyte units) at beginning of the job is
Filesystem     1K-blocks  Used Available Use% Mounted on
tmpfs            8089516 96776   7992740   2% /tmp
GAMESS temporary binary files will be written to /tmp
GAMESS supplementary output files will be written to /tmp
Copying input file Trp_freq.inp to your run's scratch directory...

 Distributed Data Interface kickoff program.
 Initiating 1 compute processes on 1 nodes to run the following command:
 /opt/gamess/gamess.01.x Trp_freq 

          ******************************************************
          *         GAMESS VERSION =  5 DEC 2014 (R1)          *
          *             FROM IOWA STATE UNIVERSITY             *
          * M.W.SCHMIDT, K.K.BALDRIDGE, J.A.BOATZ, S.T.ELBERT, *
          *   M.S.GORDON, J.H.JENSEN, S.KOSEKI, N.MATSUNAGA,   *
          *          K.A.NGUYEN, S.J.SU, T.L.WINDUS,           *
          *       TOGETHER WITH M.DUPUIS, J.A.MONTGOMERY       *
          *         J.COMPUT.CHEM.  14, 1347-1363(1993)        *
          **************** 64 BIT LINUX VERSION ****************

  SINCE 1993, STUDENTS AND POSTDOCS WORKING AT IOWA STATE UNIVERSITY
  AND ALSO IN THEIR VARIOUS JOBS AFTER LEAVING ISU HAVE MADE IMPORTANT
  CONTRIBUTIONS TO THE CODE:
     IVANA ADAMOVIC, CHRISTINE AIKENS, YURI ALEXEEV, POOJA ARORA,
     ANDREY ASADCHEV, ROB BELL, PRADIPTA BANDYOPADHYAY, JONATHAN BENTZ,
     BRETT BODE, KURT BRORSEN, CALEB CARLIN, GALINA CHABAN, WEI CHEN,
     CHEOL HO CHOI, PAUL DAY, ALBERT DEFUSCO, NUWAN DESILVA, TIM DUDLEY,
     DMITRI FEDOROV, GRAHAM FLETCHER, MARK FREITAG, KURT GLAESEMANN,
     DAN KEMP, GRANT MERRILL, NORIYUKI MINEZAWA, JONATHAN MULLIN,
     TAKESHI NAGATA, SEAN NEDD, HEATHER NETZLOFF, BOSILJKA NJEGIC, RYAN OLSON,
     MIKE PAK, SPENCER PRUITT, LUKE ROSKOP, JIM SHOEMAKER, LYUDMILA SLIPCHENKO,
     TONY SMITH, SAROM SOK, JIE SONG, TETSUYA TAKETSUGU, SIMON WEBB,
     PENG XU, SOOHAENG YOO, FEDERICO ZAHARIEV

  ADDITIONAL CODE HAS BEEN PROVIDED BY COLLABORATORS IN OTHER GROUPS:
     IOWA STATE UNIVERSITY:
          JOE IVANIC, AARON WEST, LAIMUTIS BYTAUTAS, KLAUS RUEDENBERG
     UNIVERSITY OF TOKYO: KIMIHIKO HIRAO, TAKAHITO NAKAJIMA,
          TAKAO TSUNEDA, MUNEAKI KAMIYA, SUSUMU YANAGISAWA,
          KIYOSHI YAGI, MAHITO CHIBA, SEIKEN TOKURA, NAOAKI KAWAKAMI
     UNIVERSITY OF AARHUS: FRANK JENSEN
     UNIVERSITY OF IOWA: VISVALDAS KAIRYS, HUI LI
     NATIONAL INST. OF STANDARDS AND TECHNOLOGY: WALT STEVENS, DAVID GARMER
     UNIVERSITY OF PISA: BENEDETTA MENNUCCI, JACOPO TOMASI
     UNIVERSITY OF MEMPHIS: HENRY KURTZ, PRAKASHAN KORAMBATH
     UNIVERSITY OF ALBERTA: TOBY ZENG, MARIUSZ KLOBUKOWSKI
     UNIVERSITY OF NEW ENGLAND: MARK SPACKMAN
     MIE UNIVERSITY: HIROAKI UMEDA
     NAT. INST. OF ADVANCED INDUSTRIAL SCIENCE AND TECHNOLOGY: KAZUO KITAURA
     MICHIGAN STATE UNIVERSITY:
          KAROL KOWALSKI, MARTA WLOCH, JEFFREY GOUR, JESSE LUTZ,
          WEI LI, PIOTR PIECUCH
     UNIVERSITY OF SILESIA: MONIKA MUSIAL, STANISLAW KUCHARSKI
     FACULTES UNIVERSITAIRES NOTRE-DAME DE LA PAIX:
          OLIVIER QUINET, BENOIT CHAMPAGNE
     UNIVERSITY OF CALIFORNIA - SANTA BARBARA: BERNARD KIRTMAN
     INSTITUTE FOR MOLECULAR SCIENCE:
          KAZUYA ISHIMURA, MICHIO KATOUDA, AND SHIGERU NAGASE
     UNIVERSITY OF NOTRE DAME: ANNA POMOGAEVA, DAN CHIPMAN
     KYUSHU UNIVERSITY:
          HARUYUKI NAKANO,
          FENG LONG GU, JACEK KORCHOWIEC, MARCIN MAKOWSKI, AND YURIKO AOKI,
          HIROTOSHI MORI AND EISAKU MIYOSHI
     PENNSYLVANIA STATE UNIVERSITY:
          TZVETELIN IORDANOV, CHET SWALINA, JONATHAN SKONE,
          SHARON HAMMES-SCHIFFER
     WASEDA UNIVERSITY:
          MASATO KOBAYASHI, TOMOKO AKAMA, TSUGUKI TOUMA,
          TAKESHI YOSHIKAWA, YASUHIRO IKABATA, HIROMI NAKAI
     NANJING UNIVERSITY: SHUHUA LI
     UNIVERSITY OF NEBRASKA:
          PEIFENG SU, DEJUN SI, NANDUN THELLAMUREGE, YALI WANG, HUI LI
     UNIVERSITY OF ZURICH: ROBERTO PEVERATI, KIM BALDRIDGE
     N. COPERNICUS UNIVERSITY AND JACKSON STATE UNIVERSITY:
          MARIA BARYSZ
     UNIVERSITY OF COPENHAGEN: CASPER STEINMANN
     TOKYO INSTITUTE OF TECHNOLOGY: HIROYA NAKATA
     NAGOYA UNIVERSITY: YOSHIO NISHIMOTO, STEPHAN IRLE

 EXECUTION OF GAMESS BEGUN Sun Jul 24 18:36:29 2016

            ECHO OF THE FIRST FEW INPUT CARDS -
 INPUT CARD>!   File created by the GAMESS Input Deck Generator Plugin for Avogadro         
 INPUT CARD> $basis gbasis=sto ngauss=3 $end                                                
 INPUT CARD> $contrl scftyp=rhf runtyp=hessian $end                                         
 INPUT CARD> $cphf polar=.true. $end                                                        
 INPUT CARD> $scf dirscf=.true. $end                                                        
 INPUT CARD> $system mwords=250 $end                                                        
 INPUT CARD>                                                                                
 INPUT CARD> $data                                                                          
 INPUT CARD>Title                                                                           
 INPUT CARD>C1                                                                              
 INPUT CARD>N     7.0    -0.06998     0.33220     0.28213                                   
 INPUT CARD>C     6.0     1.37280     0.09707    -0.01296                                   
 INPUT CARD>C     6.0     2.09693    -0.05236     1.36827                                   
 INPUT CARD>O     8.0     3.13825    -0.65637     1.53802                                   
 INPUT CARD>C     6.0     1.95297     1.31361    -0.79560                                   
 INPUT CARD>H     1.0     1.84427     2.20506    -0.18016                                   
 INPUT CARD>H     1.0     1.34559     1.45949    -1.68857                                   
 INPUT CARD>C     6.0     3.40536     1.12706    -1.19181                                   
 INPUT CARD>C     6.0     4.48452     1.62350    -0.55989                                   
 INPUT CARD>N     7.0     5.65091     1.23793    -1.22846                                   
 INPUT CARD>H     1.0     6.60093     1.41124    -0.90286                                   
 INPUT CARD>C     6.0     5.29216     0.43563    -2.31316                                   
 INPUT CARD>C     6.0     3.89420     0.35580    -2.32633                                   
 INPUT CARD>C     6.0     3.26592    -0.38326    -3.34313                                   
 INPUT CARD>H     1.0     2.18643    -0.45771    -3.38159                                   
 INPUT CARD>C     6.0     4.03818    -1.00875    -4.28710                                   
 INPUT CARD>H     1.0     3.56969    -1.58248    -5.07556                                   
 INPUT CARD>C     6.0     5.44452    -0.91949    -4.25190                                   
 INPUT CARD>H     1.0     6.02299    -1.42780    -5.01300                                   
 INPUT CARD>C     6.0     6.08696    -0.20240    -3.27677                                   
 INPUT CARD>H     1.0     7.16567    -0.12878    -3.24587                                   
 INPUT CARD>H     1.0     4.54576     2.24253     0.32540                                   
 INPUT CARD>H     1.0    -0.51598     0.74789    -0.54877                                   
 INPUT CARD>H     1.0     1.54205    -0.81439    -0.59355                                   
 INPUT CARD>H     1.0    -0.53023    -0.58240     0.40845                                   
 INPUT CARD>O     8.0     1.45758     0.59969     2.40935                                   
 INPUT CARD>H     1.0     0.59900     0.88424     2.00478                                   
 INPUT CARD> $end                                                                           
  250000000 WORDS OF MEMORY AVAILABLE

     BASIS OPTIONS
     -------------
     GBASIS=STO          IGAUSS=       3      POLAR=NONE    
     NDFUNC=       0     NFFUNC=       0     DIFFSP=       F
     NPFUNC=       0      DIFFS=       F     BASNAM=        


     RUN TITLE
     ---------
 Title                                                                           

 THE POINT GROUP OF THE MOLECULE IS C1      
 THE ORDER OF THE PRINCIPAL AXIS IS     0

 ATOM      ATOMIC                      COORDINATES (BOHR)
           CHARGE         X                   Y                   Z
 N           7.0    -0.1322430246        0.6277669731        0.5331483929
 C           6.0     2.5942158359        0.1834357016       -0.0244908488
 C           6.0     3.9626231154       -0.0989460527        2.5856553772
 O           8.0     5.9304325810       -1.2403594466        2.9064363636
 C           6.0     3.6905781622        2.4823629547       -1.5034659958
 H           1.0     3.4851649474        4.1669591865       -0.3404530339
 H           1.0     2.5427963918        2.7580361818       -3.1909346111
 C           6.0     6.4351972895        2.1298345717       -2.2521943294
 C           6.0     8.4745139865        3.0679701411       -1.0580386833
 N           7.0    10.6786714813        2.3393484920       -2.3214527869
 H           1.0    12.4739489641        2.6668569029       -1.7061580053
 C           6.0    10.0007322832        0.8232213320       -4.3712385658
 C           6.0     7.3589709414        0.6723645064       -4.3961262570
 C           6.0     6.1716938978       -0.7242563821       -6.3175996413
 H           1.0     4.1317535913       -0.8649464818       -6.3902785028
 C           6.0     7.6310536891       -1.9062610901       -8.1014442820
 H           1.0     6.7457359611       -2.9904535811       -9.5914176342
 C           6.0    10.2886509347       -1.7375841485       -8.0349259272
 H           1.0    11.3818007268       -2.6981507653       -9.4731963764
 C           6.0    11.5026864982       -0.3824805399       -6.1921974248
 H           1.0    13.5411528184       -0.2433589127       -6.1338048918
 H           1.0     8.5902408059        4.2377672192        0.6149168364
 H           1.0    -0.9750608151        1.4133071690       -1.0370249303
 H           1.0     2.9140519594       -1.5389739471       -1.1216468600
 H           1.0    -1.0019894105       -1.1005764152        0.7718585797
 O           8.0     2.7544268052        1.1332497776        4.5530113085
 H           1.0     1.1319458666        1.6709713074        3.7884848657

          INTERNUCLEAR DISTANCES (ANGS.)
          ------------------------------

                1 N          2 C          3 C          4 O          5 C     

   1 N       0.0000000    1.4913009 *  2.4541975 *  3.5843089    2.4933901 *
   2 C       1.4913009 *  0.0000000    1.5666812 *  2.4677975 *  1.5585545 *
   3 C       2.4541975 *  1.5666812 *  0.0000000    1.2157263 *  2.5629928 *
   4 O       3.5843089    2.4677975 *  1.2157263 *  0.0000000    3.2758956  
   5 C       2.4933901 *  1.5585545 *  2.5629928 *  3.2758956    0.0000000  
   6 H       2.7176589 *  2.1665322 *  2.7490758 *  3.5797079    1.0886989 *
   7 H       2.6754962 *  2.1597679 *  3.4920586    4.2545712    1.0897646 *
   8 C       3.8577571    2.5655149 *  3.1075763    3.2716880    1.5169773 *
   9 C       4.8083182    3.5088349    3.4966975    3.3780877    2.5613154 *
  10 N       5.9858843    4.5914297    4.5867885    4.1898979    3.7239570  
  11 H       6.8607266    5.4637266    5.2522540    4.7141340    4.6502224  
  12 C       5.9580847    4.5570743    4.8990362    4.5456990    3.7714755  
  13 C       4.7454550    3.4316293    4.1287823    4.0656057    2.6512088 *
  14 C       4.9782147    3.8606544    4.8655239    4.8904513    3.3306328  
  15 H       4.3747215    3.5096214    4.7679649    5.0147771    3.1431548  
  16 C       6.2891167    5.1570690    6.0552740    5.9047497    4.6831644  
  17 H       6.7541128    5.7686335    6.7847796    6.6920296    5.4147187  
  18 C       7.2480250    5.9649736    6.5988320    6.2378912    5.3966348  
  19 H       8.2619783    6.9964202    7.6175054    7.1994925    6.4704601  
  20 C       7.1315830    5.7415540    6.1252957    5.6642018    5.0541433  
  21 H       8.0631208    6.6377751    6.8547978    6.2756726    5.9377229  
  22 H       4.9956270    3.8451478    3.5143799    3.4431313    2.9735658 *
  23 H       1.0305867 *  2.0683687 *  3.3380745    4.4362186    2.5449319 *
  24 H       2.1633596 *  1.0938417 *  2.1765384 *  2.6676610 *  2.1767093 *
  25 H       1.0316395 *  2.0641679 *  2.8467818 *  3.8391595    3.3482641  
  26 O       2.6324998 *  2.4753586 *  1.3848412 *  2.2719054 *  3.3206622  
  27 H       1.9286797 *  2.2999299 *  1.8778069 *  3.0065154    3.1400193  

                6 H          7 H          8 C          9 C         10 N     

   1 N       2.7176589 *  2.6754962 *  3.8577571    4.8083182    5.9858843  
   2 C       2.1665322 *  2.1597679 *  2.5655149 *  3.5088349    4.5914297  
   3 C       2.7490758 *  3.4920586    3.1075763    3.4966975    4.5867885  
   4 O       3.5797079    4.2545712    3.2716880    3.3780877    4.1898979  
   5 C       1.0886989 *  1.0897646 *  1.5169773 *  2.5613154 *  3.7239570  
   6 H       0.0000000    1.7549522 *  2.1500050 *  2.7300782 *  4.0650684  
   7 H       1.7549522 *  0.0000000    2.1447454 *  3.3397155    4.3355012  
   8 C       2.1500050 *  2.1447454 *  0.0000000    1.3454969 *  2.2485840 *
   9 C       2.7300782 *  3.3397155    1.3454969 *  0.0000000    1.3986121 *
  10 N       4.0650684    4.3355012    2.2485840 *  1.3986121 *  0.0000000  
  11 H       4.8762957    5.3139690    3.2211672    2.1545009 *  1.0191122 *
  12 C       4.4236317    4.1247808    2.3011987 *  2.2665554 *  1.3960519 *
  13 C       3.4968588    2.8496109 *  1.4563455 *  2.2529650 *  2.2515554 *
  14 C       4.3272241    3.1338417    2.6322401 *  3.6412218    3.5760682  
  15 H       4.1781062    2.6923938 *  2.9652020 *  4.1922123    4.4174411  
  16 C       5.6576295    4.4827009    3.8135241    4.5847632    4.1235601  
  17 H       6.4255330    5.0667449    4.7383674    5.6130649    5.2044565  
  18 C       6.2692647    5.3880826    4.2084072    4.5846849    3.7199795  
  19 H       7.3495384    6.4238889    5.2896871    5.6131551    4.6440610  
  20 C       5.7779993    5.2692359    3.6476706    3.6446072    2.5417049 *
  21 H       6.5698314    6.2306594    4.4650003    4.1801363    2.8692050 *
  22 H       2.7486439 *  3.8613877    2.2015248 *  1.0819828 *  2.1552398 *
  23 H       2.7982133 *  2.2958575 *  3.9917637    5.0765950    6.2235561  
  24 H       3.0625653    2.5314414 *  2.7566406 *  3.8213310    4.6365783  
  25 H       3.7087256    3.4764218    4.5795146    5.5633978    6.6482755  
  26 O       3.0712056    4.1886449    4.1279922    4.3619879    5.5879360  
  27 H       2.8406382 *  3.8117113    4.2606109    4.7139477    6.0083885  

               11 H         12 C         13 C         14 C         15 H     

   1 N       6.8607266    5.9580847    4.7454550    4.9782147    4.3747215  
   2 C       5.4637266    4.5570743    3.4316293    3.8606544    3.5096214  
   3 C       5.2522540    4.8990362    4.1287823    4.8655239    4.7679649  
   4 O       4.7141340    4.5456990    4.0656057    4.8904513    5.0147771  
   5 C       4.6502224    3.7714755    2.6512088 *  3.3306328    3.1431548  
   6 H       4.8762957    4.4236317    3.4968588    4.3272241    4.1781062  
   7 H       5.3139690    4.1247808    2.8496109 *  3.1338417    2.6923938 *
   8 C       3.2211672    2.3011987 *  1.4563455 *  2.6322401 *  2.9652020 *
   9 C       2.1545009 *  2.2665554 *  2.2529650 *  3.6412218    4.1922123  
  10 N       1.0191122 *  1.3960519 *  2.2515554 *  3.5760682    4.4174411  
  11 H       0.0000000    2.1572297 *  3.2352137    4.5052680    5.3967478  
  12 C       2.1572297 *  0.0000000    1.4002994 *  2.4160024 *  3.4036977  
  13 C       3.2352137    1.4002994 *  0.0000000    1.4052856 *  2.1660680 *
  14 C       4.5052680    2.4160024 *  1.4052856 *  0.0000000    1.0827376 *
  15 H       5.3967478    3.4036977    2.1660680 *  1.0827376 *  0.0000000  
  16 C       4.8864220    2.7486612 *  2.3931874 *  1.3706577 *  2.1336756 *
  17 H       5.9634051    3.8302121    3.3794233    2.1287833 *  2.4592784 *
  18 C       4.2409498    2.3702904 *  2.7816679 *  2.4206824 *  3.4037965  
  19 H       5.0286592    3.3608957    3.8640874    3.3883572    4.2803932  
  20 C       2.9160672 *  1.4026167 *  2.4542045 *  2.8276104 *  3.9102819  
  21 H       2.8601204 *  2.1676130 *  3.4326211    3.9092544    4.9919381  
  22 H       2.5344407 *  3.2839000    3.3190289    4.6894430    5.1574712  
  23 H       7.1565230    6.0782455    4.7710734    4.8363949    4.0965059  
  24 H       5.5354646    4.3107927    3.1471385    3.2738038    2.8836805 *
  25 H       7.5198123    6.5072092    5.2853403    5.3408580    4.6647821  
  26 O       6.1711747    6.0854762    5.3313473    6.1096080    5.9316358  
  27 H       6.6899375    6.3930906    5.4677331    6.1089410    5.7735384  

               16 C         17 H         18 C         19 H         20 C     

   1 N       6.2891167    6.7541128    7.2480250    8.2619783    7.1315830  
   2 C       5.1570690    5.7686335    5.9649736    6.9964202    5.7415540  
   3 C       6.0552740    6.7847796    6.5988320    7.6175054    6.1252957  
   4 O       5.9047497    6.6920296    6.2378912    7.1994925    5.6642018  
   5 C       4.6831644    5.4147187    5.3966348    6.4704601    5.0541433  
   6 H       5.6576295    6.4255330    6.2692647    7.3495384    5.7779993  
   7 H       4.4827009    5.0667449    5.3880826    6.4238889    5.2692359  
   8 C       3.8135241    4.7383674    4.2084072    5.2896871    3.6476706  
   9 C       4.5847632    5.6130649    4.5846849    5.6131551    3.6446072  
  10 N       4.1235601    5.2044565    3.7199795    4.6440610    2.5417049 *
  11 H       4.8864220    5.9634051    4.2409498    5.0286592    2.9160672 *
  12 C       2.7486612 *  3.8302121    2.3702904 *  3.3608957    1.4026167 *
  13 C       2.3931874 *  3.3794233    2.7816679 *  3.8640874    2.4542045 *
  14 C       1.3706577 *  2.1287833 *  2.4206824 *  3.3883572    2.8276104 *
  15 H       2.1336756 *  2.4592784 *  3.4037965    4.2803932    3.9102819  
  16 C       0.0000000    1.0818124 *  1.4096094 *  2.1545311 *  2.4224918 *
  17 H       1.0818124 *  0.0000000    2.1524310 *  2.4589674 *  3.3877595  
  18 C       1.4096094 *  2.1524310 *  0.0000000    1.0827187 *  1.3703378 *
  19 H       2.1545311 *  2.4589674 *  1.0827187 *  0.0000000    2.1260743 *
  20 C       2.4224918 *  3.3877595    1.3703378 *  2.1260743 *  0.0000000  
  21 H       3.4117006    4.2885990    2.1446855 *  2.4730384 *  1.0816608 *
  22 H       5.6660052    6.6898268    5.6354073    6.6447005    4.6182907  
  23 H       6.1482736    6.5280281    7.2125507    8.2110356    7.2072083  
  24 H       4.4621466    4.9789256    5.3501255    6.3234985    5.3132295  
  25 H       6.5650845    6.9198172    7.5848619    8.5470178    7.5836963  
  26 O       7.3545237    8.0775462    7.9104899    8.9467851    7.3760740  
  27 H       7.4161394    8.0647952    8.1165603    9.1659387    7.6937157  

               21 H         22 H         23 H         24 H         25 H     

   1 N       8.0631208    4.9956270    1.0305867 *  2.1633596 *  1.0316395 *
   2 C       6.6377751    3.8451478    2.0683687 *  1.0938417 *  2.0641679 *
   3 C       6.8547978    3.5143799    3.3380745    2.1765384 *  2.8467818 *
   4 O       6.2756726    3.4431313    4.4362186    2.6676610 *  3.8391595  
   5 C       5.9377229    2.9735658 *  2.5449319 *  2.1767093 *  3.3482641  
   6 H       6.5698314    2.7486439 *  2.7982133 *  3.0625653    3.7087256  
   7 H       6.2306594    3.8613877    2.2958575 *  2.5314414 *  3.4764218  
   8 C       4.4650003    2.2015248 *  3.9917637    2.7566406 *  4.5795146  
   9 C       4.1801363    1.0819828 *  5.0765950    3.8213310    5.5633978  
  10 N       2.8692050 *  2.1552398 *  6.2235561    4.6365783    6.6482755  
  11 H       2.8601204 *  2.5344407 *  7.1565230    5.5354646    7.5198123  
  12 C       2.1676130 *  3.2839000    6.0782455    4.3107927    6.5072092  
  13 C       3.4326211    3.3190289    4.7710734    3.1471385    5.2853403  
  14 C       3.9092544    4.6894430    4.8363949    3.2738038    5.3408580  
  15 H       4.9919381    5.1574712    4.0965059    2.8836805 *  4.6647821  
  16 C       3.4117006    5.6660052    6.1482736    4.4621466    6.5650845  
  17 H       4.2885990    6.6898268    6.5280281    4.9789256    6.9198172  
  18 C       2.1446855 *  5.6354073    7.2125507    5.3501255    7.5848619  
  19 H       2.4730384 *  6.6447005    8.2110356    6.3234985    8.5470178  
  20 C       1.0816608 *  4.6182907    7.2072083    5.3132295    7.5836963  
  21 H       0.0000000    5.0240431    8.1884458    6.2553948    8.5315123  
  22 H       5.0240431    0.0000000    5.3497041    4.3830928    5.8097161  
  23 H       8.1884458    5.3497041    0.0000000    2.5842236 *  1.6389462 *
  24 H       6.2553948    4.3830928    2.5842236 *  0.0000000    2.3134753 *
  25 H       8.5315123    5.8097161    1.6389462 *  2.3134753 *  0.0000000  
  26 O       8.0681146    4.0716860    3.5591258    3.3202659    3.0581573  
  27 H       8.4685707    4.4991314    2.7896934 *  3.2443807    2.4442714 *

               26 O         27 H     

   1 N       2.6324998 *  1.9286797 *
   2 C       2.4753586 *  2.2999299 *
   3 C       1.3848412 *  1.8778069 *
   4 O       2.2719054 *  3.0065154  
   5 C       3.3206622    3.1400193  
   6 H       3.0712056    2.8406382 *
   7 H       4.1886449    3.8117113  
   8 C       4.1279922    4.2606109  
   9 C       4.3619879    4.7139477  
  10 N       5.5879360    6.0083885  
  11 H       6.1711747    6.6899375  
  12 C       6.0854762    6.3930906  
  13 C       5.3313473    5.4677331  
  14 C       6.1096080    6.1089410  
  15 H       5.9316358    5.7735384  
  16 C       7.3545237    7.4161394  
  17 H       8.0775462    8.0647952  
  18 C       7.9104899    8.1165603  
  19 H       8.9467851    9.1659387  
  20 C       7.3760740    7.6937157  
  21 H       8.0681146    8.4685707  
  22 H       4.0716860    4.4991314  
  23 H       3.5591258    2.7896934 *
  24 H       3.3202659    3.2443807  
  25 H       3.0581573    2.4442714 *
  26 O       0.0000000    0.9908608 *
  27 H       0.9908608 *  0.0000000  

  * ... LESS THAN  3.000


     ATOMIC BASIS SET
     ----------------
 THE CONTRACTED PRIMITIVE FUNCTIONS HAVE BEEN UNNORMALIZED
 THE CONTRACTED BASIS FUNCTIONS ARE NOW NORMALIZED TO UNITY

  SHELL TYPE  PRIMITIVE        EXPONENT          CONTRACTION COEFFICIENT(S)

 N         

      1   S       1            99.1061690    0.154328967295
      1   S       2            18.0523124    0.535328142282
      1   S       3             4.8856602    0.444634542185

      2   L       4             3.7804559   -0.099967229187    0.155916274999
      2   L       5             0.8784966    0.399512826089    0.607683718598
      2   L       6             0.2857144    0.700115468880    0.391957393099

 C         

      3   S       7            71.6168373    0.154328967295
      3   S       8            13.0450963    0.535328142282
      3   S       9             3.5305122    0.444634542185

      4   L      10             2.9412494   -0.099967229187    0.155916274999
      4   L      11             0.6834831    0.399512826089    0.607683718598
      4   L      12             0.2222899    0.700115468880    0.391957393099

 C         

      5   S      13            71.6168373    0.154328967295
      5   S      14            13.0450963    0.535328142282
      5   S      15             3.5305122    0.444634542185

      6   L      16             2.9412494   -0.099967229187    0.155916274999
      6   L      17             0.6834831    0.399512826089    0.607683718598
      6   L      18             0.2222899    0.700115468880    0.391957393099

 O         

      7   S      19           130.7093214    0.154328967295
      7   S      20            23.8088661    0.535328142282
      7   S      21             6.4436083    0.444634542185

      8   L      22             5.0331513   -0.099967229187    0.155916274999
      8   L      23             1.1695961    0.399512826089    0.607683718598
      8   L      24             0.3803890    0.700115468880    0.391957393099

 C         

      9   S      25            71.6168373    0.154328967295
      9   S      26            13.0450963    0.535328142282
      9   S      27             3.5305122    0.444634542185

     10   L      28             2.9412494   -0.099967229187    0.155916274999
     10   L      29             0.6834831    0.399512826089    0.607683718598
     10   L      30             0.2222899    0.700115468880    0.391957393099

 H         

     11   S      31             3.4252509    0.154328967295
     11   S      32             0.6239137    0.535328142282
     11   S      33             0.1688554    0.444634542185

 H         

     12   S      34             3.4252509    0.154328967295
     12   S      35             0.6239137    0.535328142282
     12   S      36             0.1688554    0.444634542185

 C         

     13   S      37            71.6168373    0.154328967295
     13   S      38            13.0450963    0.535328142282
     13   S      39             3.5305122    0.444634542185

     14   L      40             2.9412494   -0.099967229187    0.155916274999
     14   L      41             0.6834831    0.399512826089    0.607683718598
     14   L      42             0.2222899    0.700115468880    0.391957393099

 C         

     15   S      43            71.6168373    0.154328967295
     15   S      44            13.0450963    0.535328142282
     15   S      45             3.5305122    0.444634542185

     16   L      46             2.9412494   -0.099967229187    0.155916274999
     16   L      47             0.6834831    0.399512826089    0.607683718598
     16   L      48             0.2222899    0.700115468880    0.391957393099

 N         

     17   S      49            99.1061690    0.154328967295
     17   S      50            18.0523124    0.535328142282
     17   S      51             4.8856602    0.444634542185

     18   L      52             3.7804559   -0.099967229187    0.155916274999
     18   L      53             0.8784966    0.399512826089    0.607683718598
     18   L      54             0.2857144    0.700115468880    0.391957393099

 H         

     19   S      55             3.4252509    0.154328967295
     19   S      56             0.6239137    0.535328142282
     19   S      57             0.1688554    0.444634542185

 C         

     20   S      58            71.6168373    0.154328967295
     20   S      59            13.0450963    0.535328142282
     20   S      60             3.5305122    0.444634542185

     21   L      61             2.9412494   -0.099967229187    0.155916274999
     21   L      62             0.6834831    0.399512826089    0.607683718598
     21   L      63             0.2222899    0.700115468880    0.391957393099

 C         

     22   S      64            71.6168373    0.154328967295
     22   S      65            13.0450963    0.535328142282
     22   S      66             3.5305122    0.444634542185

     23   L      67             2.9412494   -0.099967229187    0.155916274999
     23   L      68             0.6834831    0.399512826089    0.607683718598
     23   L      69             0.2222899    0.700115468880    0.391957393099

 C         

     24   S      70            71.6168373    0.154328967295
     24   S      71            13.0450963    0.535328142282
     24   S      72             3.5305122    0.444634542185

     25   L      73             2.9412494   -0.099967229187    0.155916274999
     25   L      74             0.6834831    0.399512826089    0.607683718598
     25   L      75             0.2222899    0.700115468880    0.391957393099

 H         

     26   S      76             3.4252509    0.154328967295
     26   S      77             0.6239137    0.535328142282
     26   S      78             0.1688554    0.444634542185

 C         

     27   S      79            71.6168373    0.154328967295
     27   S      80            13.0450963    0.535328142282
     27   S      81             3.5305122    0.444634542185

     28   L      82             2.9412494   -0.099967229187    0.155916274999
     28   L      83             0.6834831    0.399512826089    0.607683718598
     28   L      84             0.2222899    0.700115468880    0.391957393099

 H         

     29   S      85             3.4252509    0.154328967295
     29   S      86             0.6239137    0.535328142282
     29   S      87             0.1688554    0.444634542185

 C         

     30   S      88            71.6168373    0.154328967295
     30   S      89            13.0450963    0.535328142282
     30   S      90             3.5305122    0.444634542185

     31   L      91             2.9412494   -0.099967229187    0.155916274999
     31   L      92             0.6834831    0.399512826089    0.607683718598
     31   L      93             0.2222899    0.700115468880    0.391957393099

 H         

     32   S      94             3.4252509    0.154328967295
     32   S      95             0.6239137    0.535328142282
     32   S      96             0.1688554    0.444634542185

 C         

     33   S      97            71.6168373    0.154328967295
     33   S      98            13.0450963    0.535328142282
     33   S      99             3.5305122    0.444634542185

     34   L     100             2.9412494   -0.099967229187    0.155916274999
     34   L     101             0.6834831    0.399512826089    0.607683718598
     34   L     102             0.2222899    0.700115468880    0.391957393099

 H         

     35   S     103             3.4252509    0.154328967295
     35   S     104             0.6239137    0.535328142282
     35   S     105             0.1688554    0.444634542185

 H         

     36   S     106             3.4252509    0.154328967295
     36   S     107             0.6239137    0.535328142282
     36   S     108             0.1688554    0.444634542185

 H         

     37   S     109             3.4252509    0.154328967295
     37   S     110             0.6239137    0.535328142282
     37   S     111             0.1688554    0.444634542185

 H         

     38   S     112             3.4252509    0.154328967295
     38   S     113             0.6239137    0.535328142282
     38   S     114             0.1688554    0.444634542185

 H         

     39   S     115             3.4252509    0.154328967295
     39   S     116             0.6239137    0.535328142282
     39   S     117             0.1688554    0.444634542185

 O         

     40   S     118           130.7093214    0.154328967295
     40   S     119            23.8088661    0.535328142282
     40   S     120             6.4436083    0.444634542185

     41   L     121             5.0331513   -0.099967229187    0.155916274999
     41   L     122             1.1695961    0.399512826089    0.607683718598
     41   L     123             0.3803890    0.700115468880    0.391957393099

 H         

     42   S     124             3.4252509    0.154328967295
     42   S     125             0.6239137    0.535328142282
     42   S     126             0.1688554    0.444634542185

 TOTAL NUMBER OF BASIS SET SHELLS             =   42
 NUMBER OF CARTESIAN GAUSSIAN BASIS FUNCTIONS =   87
 NUMBER OF ELECTRONS                          =  108
 CHARGE OF MOLECULE                           =    0
 SPIN MULTIPLICITY                            =    1
 NUMBER OF OCCUPIED ORBITALS (ALPHA)          =   54
 NUMBER OF OCCUPIED ORBITALS (BETA )          =   54
 TOTAL NUMBER OF ATOMS                        =   27
 THE NUCLEAR REPULSION ENERGY IS      957.1063154280

     $CONTRL OPTIONS
     ---------------
 SCFTYP=RHF          RUNTYP=HESSIAN      EXETYP=RUN     
 MPLEVL=       0     CITYP =NONE         CCTYP =NONE         VBTYP =NONE    
 DFTTYP=NONE         TDDFT =NONE    
 MULT  =       1     ICHARG=       0     NZVAR =       0     COORD =UNIQUE  
 PP    =NONE         RELWFN=NONE         LOCAL =NONE         NUMGRD=       F
 ISPHER=      -1     NOSYM =       0     MAXIT =      30     UNITS =ANGS    
 PLTORB=       F     MOLPLT=       F     AIMPAC=       F     FRIEND=        
 NPRINT=       7     IREST =       0     GEOM  =INPUT   
 NORMF =       0     NORMP =       0     ITOL  =      20     ICUT  =       9
 INTTYP=BEST         GRDTYP=BEST         QMTTOL= 1.0E-06

     $SYSTEM OPTIONS
     ---------------
  REPLICATED MEMORY=   250000000 WORDS (ON EVERY NODE).
 DISTRIBUTED MEMDDI=           0 MILLION WORDS IN AGGREGATE,
 MEMDDI DISTRIBUTED OVER   1 PROCESSORS IS           0 WORDS/PROCESSOR.
 TOTAL MEMORY REQUESTED ON EACH PROCESSOR=   250000000 WORDS.
 TIMLIM=      525600.00 MINUTES, OR     365.0 DAYS.
 PARALL= F  BALTYP=  DLB     KDIAG=    0  COREFL= F
 MXSEQ2=     300 MXSEQ3=     150  mem10=         0

          ----------------
          PROPERTIES INPUT
          ----------------

     MOMENTS            FIELD           POTENTIAL          DENSITY
 IEMOM =       1   IEFLD =       0   IEPOT =       0   IEDEN =       0
 WHERE =COMASS     WHERE =NUCLEI     WHERE =NUCLEI     WHERE =NUCLEI  
 OUTPUT=BOTH       OUTPUT=BOTH       OUTPUT=BOTH       OUTPUT=BOTH    
 IEMINT=       0   IEFINT=       0                     IEDINT=       0
                                                       MORB  =       0
          EXTRAPOLATION IN EFFECT
          SOSCF IN EFFECT
 ORBITAL PRINTING OPTION: NPREO=     1    87     2     1

     -------------------------------
     INTEGRAL TRANSFORMATION OPTIONS
     -------------------------------
     NWORD  =            0
     CUTOFF = 1.0E-09     MPTRAN =       0
     DIRTRF =       T     AOINTS =DUP     

          ----------------------
          INTEGRAL INPUT OPTIONS
          ----------------------
 NOPK  =       1 NORDER=       0 SCHWRZ=       T

     ------------------------------------------
     THE POINT GROUP IS C1 , NAXIS= 0, ORDER= 1
     ------------------------------------------

     DIMENSIONS OF THE SYMMETRY SUBSPACES ARE
 A   =   87

 ..... DONE SETTING UP THE RUN .....
 STEP CPU TIME =     0.04 TOTAL CPU TIME =        0.0 (    0.0 MIN)
 TOTAL WALL CLOCK TIME=        0.0 SECONDS, CPU UTILIZATION IS 400.00%

     ---------------------------------
     HESSIAN MATRIX CONTROL PARAMETERS
     ---------------------------------
     METHOD=ANALYTIC   NVIB  =       2   VIBSIZ= 0.01000
     RDHESS=       F   PURIFY=       F   PRTIFC=       F
     VIBANL=       T   DECOMP=       F   PROJCT=       F
     SCLFAC= 1.00000   PRTSCN=       F   NPRT  =       0
     PULCOR=       F   NPUN  =       0   REDOVB=       T
     THERMOCHEMISTRY WILL BE PRINTED FOR    1 TEMPERATURES:
      298.15000

     ------------------------------
     CPHF RESPONSE SOLUTION OPTIONS
     ------------------------------
     POLAR  =       T     NWORD  =       0
     CPHF   =AO      

          ********************
          1 ELECTRON INTEGRALS
          ********************
 ...... END OF ONE-ELECTRON INTEGRALS ......
 STEP CPU TIME =     0.08 TOTAL CPU TIME =        0.1 (    0.0 MIN)
 TOTAL WALL CLOCK TIME=        0.0 SECONDS, CPU UTILIZATION IS 400.00%

          -------------
          GUESS OPTIONS
          -------------
          GUESS =HUCKEL            NORB  =       0          NORDER=       0
          MIX   =       F          PRTMO =       F          PUNMO =       F
          TOLZ  = 1.0E-08          TOLE  = 1.0E-05
          SYMDEN=       F          PURIFY=       F

 INITIAL GUESS ORBITALS GENERATED BY HUCKEL   ROUTINE.
 HUCKEL GUESS REQUIRES    102153 WORDS.

 SYMMETRIES FOR INITIAL GUESS ORBITALS FOLLOW.   BOTH SET(S).
    54 ORBITALS ARE OCCUPIED (   15 CORE ORBITALS).
    16=A       17=A       18=A       19=A       20=A       21=A       22=A   
    23=A       24=A       25=A       26=A       27=A       28=A       29=A   
    30=A       31=A       32=A       33=A       34=A       35=A       36=A   
    37=A       38=A       39=A       40=A       41=A       42=A       43=A   
    44=A       45=A       46=A       47=A       48=A       49=A       50=A   
    51=A       52=A       53=A       54=A       55=A       56=A       57=A   
    58=A       59=A       60=A       61=A       62=A       63=A       64=A   
 ...... END OF INITIAL ORBITAL SELECTION ......
 STEP CPU TIME =     0.07 TOTAL CPU TIME =        0.2 (    0.0 MIN)
 TOTAL WALL CLOCK TIME=        0.1 SECONDS, CPU UTILIZATION IS 380.00%

                    ----------------------
                    AO INTEGRAL TECHNOLOGY
                    ----------------------
     S,P,L SHELL ROTATED AXIS INTEGRALS, REPROGRAMMED BY
        KAZUYA ISHIMURA (IMS) AND JOSE SIERRA (SYNSTAR).
     S,P,D,L SHELL ROTATED AXIS INTEGRALS PROGRAMMED BY
        KAZUYA ISHIMURA (INSTITUTE FOR MOLECULAR SCIENCE).
     S,P,D,F,G SHELL TO TOTAL QUARTET ANGULAR MOMENTUM SUM 5,
        ERIC PROGRAM BY GRAHAM FLETCHER (ELORET AND NASA ADVANCED
        SUPERCOMPUTING DIVISION, AMES RESEARCH CENTER).
     S,P,D,F,G,L SHELL GENERAL RYS QUADRATURE PROGRAMMED BY
        MICHEL DUPUIS (PACIFIC NORTHWEST NATIONAL LABORATORY).

          --------------------
          2 ELECTRON INTEGRALS
          --------------------

 DIRECT SCF METHOD SKIPS INTEGRAL STORAGE ON DISK.
 DIRECT TRANSFORMATION SKIPS AO INTEGRAL STORAGE ON DISK.
  ...... END OF TWO-ELECTRON INTEGRALS .....
 STEP CPU TIME =     0.04 TOTAL CPU TIME =        0.2 (    0.0 MIN)
 TOTAL WALL CLOCK TIME=        0.1 SECONDS, CPU UTILIZATION IS 383.33%

          --------------------------
                 RHF SCF CALCULATION
          --------------------------

     NUCLEAR ENERGY =       957.1063154280
     MAXIT =   30     NPUNCH=    2
     EXTRAP=T  DAMP=F  SHIFT=F  RSTRCT=F  DIIS=F  DEM=F  SOSCF=T
     DENSITY MATRIX CONV=  2.00E-05
     SOSCF WILL OPTIMIZE    1782 ORBITAL ROTATIONS, SOGTOL=   0.250
     MEMORY REQUIRED FOR RHF ITERS=    107491 WORDS.

 DIRECT SCF CALCULATION, SCHWRZ=T   FDIFF=T,  DIRTHR=  0.00E+00 NITDIR=10
 SCHWARZ INEQUALITY OVERHEAD:      3670 INTEGRALS, T=        0.02

                                                                                   NONZERO     BLOCKS
 ITER EX DEM     TOTAL ENERGY        E CHANGE  DENSITY CHANGE     ORB. GRAD      INTEGRALS    SKIPPED
   1  0  0     -672.6343946505  -672.6343946505   0.591950698   0.000000000        4456380     213915
          ---------------START SECOND ORDER SCF---------------
   2  1  0     -673.5152763544    -0.8808817039   0.231363290   0.080521828        4408492     226049
   3  2  0     -673.5641753098    -0.0488989554   0.123044049   0.066499416        4297324     239346
   4  3  0     -673.5896882935    -0.0255129838   0.022012227   0.005690833        4139565     251637
   5  4  0     -673.5904536981    -0.0007654045   0.007818492   0.001431585        3995088     260822
   6  5  0     -673.5905568874    -0.0001031893   0.002297555   0.001000293        3790680     271854
   7  6  0     -673.5905698631    -0.0000129758   0.000796283   0.000164266        3571915     283353
   8  7  0     -673.5905709793    -0.0000011161   0.000283196   0.000104183        3319441     293904
   9  8  0     -673.5905711357    -0.0000001564   0.000069455   0.000018370        3051849     306554
  10  9  0     -673.5905711533    -0.0000000176   0.000029050   0.000014336        2793186     317086
  11 10  0     -673.5905711570    -0.0000000037   0.000009912   0.000002803        2609435     324912
  12 11  0     -673.5905711581    -0.0000000011   0.000004283   0.000001399        2337238     336385

          -----------------
          DENSITY CONVERGED
          -----------------
     TIME TO FORM FOCK OPERATORS=       5.9 SECONDS (       0.5 SEC/ITER)
     FOCK TIME ON FIRST ITERATION=       0.9, LAST ITERATION=       0.3
     TIME TO SOLVE SCF EQUATIONS=       0.0 SECONDS (       0.0 SEC/ITER)

 FINAL RHF ENERGY IS     -673.5905711581 AFTER  12 ITERATIONS

          ------------
          EIGENVECTORS
          ------------

                      1          2          3          4          5
                  -20.2690   -20.2423   -15.3897   -15.3454   -11.1482
                     A          A          A          A          A   
    1  N  1  S   -0.000053   0.000004  -0.000000   0.993420   0.000012
    2  N  1  S    0.000373  -0.000007  -0.000000   0.031185   0.000210
    3  N  1  X    0.000086  -0.000016  -0.000000   0.000176  -0.000019
    4  N  1  Y    0.000177   0.000012   0.000000  -0.002598   0.000035
    5  N  1  Z    0.000509  -0.000076   0.000000  -0.003476  -0.000138
    6  C  2  S   -0.000031  -0.000023  -0.000000   0.000492  -0.003161
    7  C  2  S    0.000291   0.000210   0.000002  -0.004956  -0.005058
    8  C  2  X   -0.000181   0.000333   0.000002   0.004097  -0.001817
    9  C  2  Y    0.000197  -0.000276   0.000003  -0.000568   0.000442
   10  C  2  Z    0.000366  -0.000057   0.000004  -0.000660  -0.003347
   11  C  3  S    0.000513   0.000541   0.000001  -0.000001   0.992766
   12  C  3  S   -0.004539  -0.007317  -0.000006   0.000259   0.031035
   13  C  3  X    0.001997  -0.005567  -0.000002  -0.000135   0.000549
   14  C  3  Y   -0.002108   0.003214  -0.000004   0.000010  -0.000223
   15  C  3  Z   -0.003455  -0.000940   0.000002  -0.000074   0.000083
   16  O  4  S    0.001229   0.994240  -0.000001   0.000006   0.000124
   17  O  4  S    0.000255   0.026202   0.000002  -0.000031  -0.005621
   18  O  4  X   -0.000139  -0.004939   0.000001   0.000008   0.001311
   19  O  4  Y    0.000201   0.002871   0.000001  -0.000000  -0.000785
   20  O  4  Z    0.000444  -0.000798  -0.000002   0.000037   0.000146
   21  C  5  S   -0.000006  -0.000009   0.000003  -0.000005  -0.000499
   22  C  5  S   -0.000001   0.000028  -0.000001   0.000239   0.000086
   23  C  5  X    0.000017   0.000022  -0.000029  -0.000164  -0.000183
   24  C  5  Y   -0.000032  -0.000003  -0.000014  -0.000104   0.000057
   25  C  5  Z    0.000030   0.000064  -0.000034   0.000108  -0.000251
   26  H  6  S    0.000080  -0.000010  -0.000031  -0.000034  -0.000201
   27  H  7  S    0.000011   0.000023  -0.000011   0.000183  -0.000168
   28  C  8  S    0.000003  -0.000002  -0.000001   0.000010  -0.000153
   29  C  8  S   -0.000020   0.000007   0.000405  -0.000065  -0.000068
   30  C  8  X    0.000004  -0.000000   0.000324   0.000034  -0.000008
   31  C  8  Y    0.000009   0.000005  -0.000000   0.000065   0.000063
   32  C  8  Z   -0.000014   0.000012  -0.000023  -0.000036  -0.000154
   33  C  9  S    0.000000   0.000001   0.000486  -0.000000  -0.000092
   34  C  9  S    0.000000  -0.000007  -0.005833   0.000003   0.000026
   35  C  9  X   -0.000006  -0.000001  -0.003835  -0.000003   0.000040
   36  C  9  Y   -0.000005   0.000017   0.001320  -0.000007   0.000053
   37  C  9  Z    0.000000  -0.000002   0.002230   0.000004  -0.000053
   38  N 10  S   -0.000000  -0.000000   0.993277   0.000000   0.000001
   39  N 10  S    0.000001   0.000004   0.032387   0.000000  -0.000015
   40  N 10  X   -0.000001  -0.000003  -0.000965   0.000000   0.000008
   41  N 10  Y    0.000001  -0.000001  -0.000654   0.000000  -0.000015
   42  N 10  Z    0.000001   0.000002  -0.000019   0.000000   0.000003
   43  H 11  S   -0.000000  -0.000000  -0.006355  -0.000000   0.000001
   44  C 12  S   -0.000000  -0.000000   0.000482   0.000000   0.000000
   45  C 12  S    0.000000  -0.000000  -0.005801  -0.000002   0.000000
   46  C 12  X   -0.000000   0.000000  -0.001210   0.000001  -0.000001
   47  C 12  Y   -0.000000  -0.000000  -0.002691  -0.000001   0.000002
   48  C 12  Z   -0.000000  -0.000000  -0.003683   0.000000   0.000000
   49  C 13  S   -0.000000  -0.000000   0.000001   0.000000   0.000005
   50  C 13  S    0.000002   0.000003   0.000366   0.000006  -0.000008
   51  C 13  X   -0.000002  -0.000001   0.000234   0.000003   0.000003
   52  C 13  Y   -0.000000   0.000002   0.000065   0.000002  -0.000024
   53  C 13  Z    0.000002   0.000002   0.000077   0.000007   0.000012
   54  C 14  S    0.000000  -0.000000   0.000006   0.000001   0.000001
   55  C 14  S   -0.000001   0.000000  -0.000044  -0.000003   0.000000
   56  C 14  X    0.000000   0.000000  -0.000074   0.000005  -0.000001
   57  C 14  Y    0.000000  -0.000000  -0.000005   0.000001   0.000002
   58  C 14  Z    0.000000   0.000000  -0.000003  -0.000004  -0.000001
   59  H 15  S    0.000002   0.000001  -0.000017   0.000002   0.000001
   60  C 16  S   -0.000000   0.000000   0.000003   0.000000  -0.000000
   61  C 16  S    0.000000  -0.000000   0.000008  -0.000001   0.000000
   62  C 16  X   -0.000000   0.000000  -0.000016   0.000000  -0.000000
   63  C 16  Y    0.000000   0.000000  -0.000019  -0.000001   0.000000
   64  C 16  Z    0.000000  -0.000000  -0.000025  -0.000000   0.000000
   65  H 17  S   -0.000000  -0.000000  -0.000014  -0.000000  -0.000000
   66  C 18  S   -0.000000  -0.000000   0.000003  -0.000000   0.000000
   67  C 18  S   -0.000000   0.000000   0.000033   0.000000  -0.000000
   68  C 18  X    0.000000  -0.000000   0.000056  -0.000000   0.000000
   69  C 18  Y   -0.000000   0.000000  -0.000002   0.000000   0.000000
   70  C 18  Z    0.000000   0.000000  -0.000008   0.000000  -0.000000
   71  H 19  S    0.000000   0.000000  -0.000017   0.000000  -0.000000
   72  C 20  S    0.000000  -0.000000  -0.000017   0.000000   0.000000
   73  C 20  S   -0.000000   0.000000   0.000161  -0.000000   0.000000
   74  C 20  X    0.000000   0.000000   0.000278  -0.000000  -0.000000
   75  C 20  Y    0.000000   0.000000   0.000173   0.000000   0.000000
   76  C 20  Z   -0.000000   0.000000   0.000230  -0.000000   0.000000
   77  H 21  S    0.000000   0.000000  -0.000087   0.000000  -0.000000
   78  H 22  S    0.000009  -0.000005   0.000231  -0.000000  -0.000086
   79  H 23  S    0.000071  -0.000013   0.000000  -0.006521  -0.000102
   80  H 24  S    0.000018  -0.000117   0.000001   0.000377  -0.000096
   81  H 25  S    0.000083   0.000014   0.000000  -0.006505  -0.000108
   82  O 26  S    0.994140  -0.001296  -0.000000  -0.000079   0.000364
   83  O 26  S    0.026267   0.000280   0.000001   0.000561  -0.004309
   84  O 26  X   -0.001184   0.000358   0.000001  -0.000358  -0.001613
   85  O 26  Y   -0.000719  -0.000193   0.000000   0.000168   0.001311
   86  O 26  Z   -0.003991   0.000133  -0.000001  -0.000105   0.001554
   87  H 27  S   -0.005834  -0.000093   0.000001  -0.001458  -0.001171

                      6          7          8          9         10
                  -11.0985   -11.0681   -11.0652   -11.0634   -11.0254
                     A          A          A          A          A   
    1  N  1  S    0.000477   0.000009   0.000000  -0.000000  -0.000000
    2  N  1  S   -0.004859   0.000212  -0.000000   0.000004   0.000002
    3  N  1  X   -0.003586   0.000013  -0.000000   0.000003   0.000000
    4  N  1  Y    0.000529  -0.000087  -0.000001  -0.000000  -0.000000
    5  N  1  Z    0.000682  -0.000031   0.000000  -0.000002  -0.000001
    6  C  2  S    0.992079   0.006031   0.000018  -0.000124   0.000017
    7  C  2  S    0.035817  -0.005286  -0.000005   0.000010  -0.000011
    8  C  2  X    0.000102  -0.001528  -0.000002   0.000029   0.000000
    9  C  2  Y   -0.000182  -0.003261  -0.000004  -0.000005   0.000006
   10  C  2  Z    0.000032   0.002099   0.000001   0.000014   0.000007
   11  C  3  S    0.004166   0.000615  -0.000006   0.000111   0.000000
   12  C  3  S   -0.005394  -0.000067   0.000003  -0.000048  -0.000000
   13  C  3  X    0.001911  -0.000111   0.000004  -0.000060   0.000000
   14  C  3  Y   -0.000374  -0.000091   0.000001  -0.000012  -0.000000
   15  C  3  Z    0.003677   0.000030  -0.000002   0.000029   0.000000
   16  O  4  S   -0.000021  -0.000012  -0.000000   0.000001   0.000000
   17  O  4  S    0.000189   0.000073  -0.000001   0.000014  -0.000000
   18  O  4  X   -0.000089  -0.000036   0.000002  -0.000036   0.000000
   19  O  4  Y   -0.000010   0.000042   0.000000  -0.000003   0.000000
   20  O  4  Z   -0.000220  -0.000033  -0.000001   0.000014   0.000000
   21  C  5  S   -0.005022   0.991943   0.001509   0.001683  -0.000018
   22  C  5  S   -0.005611   0.037349  -0.000042   0.000304   0.000005
   23  C  5  X    0.001594  -0.000169  -0.000058   0.000048   0.000007
   24  C  5  Y    0.003206   0.000391   0.000018   0.000049  -0.000004
   25  C  5  Z   -0.002082  -0.000173   0.000032  -0.000022  -0.000005
   26  H  6  S    0.000034  -0.007020  -0.000003  -0.000194   0.000002
   27  H  7  S    0.000041  -0.007015  -0.000011  -0.000062  -0.000002
   28  C  8  S   -0.000408  -0.001891  -0.001285   0.006769  -0.000261
   29  C  8  S   -0.000016  -0.005902   0.000566  -0.007307  -0.000105
   30  C  8  X   -0.000077   0.004152   0.000027  -0.003495  -0.000012
   31  C  8  Y    0.000076  -0.000538   0.000090  -0.001697   0.000031
   32  C  8  Z   -0.000033  -0.001153   0.000123  -0.002159   0.000046
   33  C  9  S    0.000124  -0.001576  -0.055433   0.990733   0.000019
   34  C  9  S    0.000051   0.000116  -0.002256   0.035295  -0.000011
   35  C  9  X   -0.000041  -0.000119  -0.000031  -0.000373  -0.000001
   36  C  9  Y   -0.000030   0.000082   0.000360  -0.000985   0.000009
   37  C  9  Z    0.000002   0.000086   0.000504  -0.001501   0.000014
   38  N 10  S    0.000000   0.000003   0.000374   0.000433  -0.000021
   39  N 10  S    0.000001  -0.000001  -0.005311  -0.006045   0.000272
   40  N 10  X    0.000001   0.000032   0.000542   0.003083   0.000091
   41  N 10  Y    0.000001   0.000002   0.002144  -0.000974  -0.000080
   42  N 10  Z    0.000001   0.000009   0.002975  -0.001669  -0.000112
   43  H 11  S    0.000000  -0.000009  -0.000258  -0.000262  -0.000087
   44  C 12  S   -0.000002  -0.001589   0.990656   0.055634  -0.001873
   45  C 12  S    0.000002  -0.000100   0.035639   0.001787  -0.006965
   46  C 12  X   -0.000001   0.000039  -0.001069   0.000221  -0.002370
   47  C 12  Y   -0.000001  -0.000025   0.000097  -0.000234   0.001976
   48  C 12  Z   -0.000002  -0.000031   0.000100  -0.000377   0.002980
   49  C 13  S    0.000068  -0.000122   0.003171  -0.001062  -0.004876
   50  C 13  S    0.000053   0.000162  -0.007043  -0.000358   0.002092
   51  C 13  X   -0.000035  -0.000096  -0.004449  -0.000512  -0.000470
   52  C 13  Y    0.000000   0.000009  -0.000172  -0.000178  -0.000639
   53  C 13  Z    0.000042  -0.000017   0.000085  -0.000222  -0.000886
   54  C 14  S    0.000052  -0.000070  -0.000604  -0.000179  -0.279166
   55  C 14  S    0.000002  -0.000031   0.000262  -0.000119  -0.010265
   56  C 14  X   -0.000001   0.000001  -0.000023  -0.000020  -0.000492
   57  C 14  Y   -0.000009  -0.000016   0.000039  -0.000055  -0.000008
   58  C 14  Z    0.000038  -0.000052   0.000059  -0.000077   0.000023
   59  H 15  S    0.000062   0.000008  -0.000085  -0.000004   0.001866
   60  C 16  S   -0.000002  -0.000012  -0.000832  -0.000047  -0.006995
   61  C 16  S    0.000005  -0.000014  -0.000125  -0.000013   0.001057
   62  C 16  X   -0.000001   0.000009  -0.000091   0.000001  -0.001293
   63  C 16  Y    0.000006  -0.000007  -0.000132  -0.000008   0.000507
   64  C 16  Z   -0.000000  -0.000004  -0.000180  -0.000011   0.000810
   65  H 17  S   -0.000001   0.000001  -0.000067  -0.000002  -0.000049
   66  C 18  S    0.000000   0.000002  -0.000894  -0.000036   0.146767
   67  C 18  S   -0.000000  -0.000001   0.000142   0.000007  -0.001723
   68  C 18  X    0.000000  -0.000001   0.000114   0.000002  -0.002010
   69  C 18  Y   -0.000000   0.000001  -0.000043  -0.000001  -0.002178
   70  C 18  Z    0.000000   0.000001  -0.000069  -0.000002  -0.002961
   71  H 19  S    0.000000   0.000000  -0.000104  -0.000005  -0.000897
   72  C 20  S    0.000001  -0.000009   0.002755   0.000090   0.940717
   73  C 20  S   -0.000000   0.000001  -0.006598  -0.000504   0.033827
   74  C 20  X   -0.000000  -0.000001   0.002372   0.000182  -0.001150
   75  C 20  Y    0.000000  -0.000000  -0.001948  -0.000157   0.000197
   76  C 20  Z   -0.000000  -0.000001  -0.002923  -0.000231   0.000370
   77  H 21  S    0.000000   0.000001   0.000007   0.000002  -0.006426
   78  H 22  S    0.000005  -0.000055   0.000230  -0.006573  -0.000002
   79  H 23  S   -0.000387  -0.000129  -0.000000   0.000002  -0.000002
   80  H 24  S   -0.006937  -0.000002  -0.000003  -0.000005   0.000017
   81  H 25  S   -0.000398  -0.000097  -0.000000  -0.000000  -0.000001
   82  O 26  S   -0.000028  -0.000008  -0.000000   0.000000  -0.000000
   83  O 26  S    0.000352   0.000032   0.000000  -0.000004   0.000000
   84  O 26  X   -0.000143   0.000031  -0.000000   0.000006  -0.000000
   85  O 26  Y    0.000012   0.000021  -0.000000   0.000007  -0.000000
   86  O 26  Z   -0.000136  -0.000048  -0.000000   0.000001  -0.000000
   87  H 27  S   -0.000498   0.000049  -0.000000   0.000003  -0.000000

                     11         12         13         14         15
                  -11.0253   -11.0239   -11.0160   -11.0149   -11.0115
                     A          A          A          A          A   
    1  N  1  S    0.000001   0.000000   0.000001  -0.000000   0.000016
    2  N  1  S   -0.000008  -0.000000  -0.000008  -0.000000  -0.000112
    3  N  1  X   -0.000001   0.000000  -0.000000   0.000000  -0.000091
    4  N  1  Y    0.000000  -0.000000   0.000003   0.000000  -0.000012
    5  N  1  Z    0.000004   0.000000   0.000001  -0.000000   0.000020
    6  C  2  S   -0.000060  -0.000001  -0.000089  -0.000000   0.000507
    7  C  2  S    0.000036  -0.000000   0.000077   0.000003   0.000071
    8  C  2  X    0.000000   0.000000   0.000010   0.000001  -0.000271
    9  C  2  Y   -0.000022   0.000000  -0.000047  -0.000001   0.000000
   10  C  2  Z   -0.000025  -0.000000  -0.000018   0.000001   0.000032
   11  C  3  S   -0.000001  -0.000000  -0.000007  -0.000000   0.000209
   12  C  3  S    0.000001   0.000000  -0.000001  -0.000000  -0.000102
   13  C  3  X   -0.000001  -0.000000   0.000009   0.000001  -0.000178
   14  C  3  Y    0.000001  -0.000000  -0.000004  -0.000000  -0.000003
   15  C  3  Z   -0.000001  -0.000000  -0.000002  -0.000000   0.000106
   16  O  4  S   -0.000000   0.000000  -0.000000  -0.000000  -0.000003
   17  O  4  S    0.000000  -0.000000  -0.000001  -0.000000   0.000061
   18  O  4  X   -0.000000  -0.000000   0.000003   0.000000  -0.000063
   19  O  4  Y   -0.000000  -0.000000  -0.000000  -0.000000   0.000017
   20  O  4  Z   -0.000000   0.000000  -0.000003  -0.000000   0.000021
   21  C  5  S    0.000077  -0.000000   0.000102   0.000012   0.002837
   22  C  5  S   -0.000025   0.000000   0.000268   0.000023  -0.005338
   23  C  5  X   -0.000033   0.000000   0.000052   0.000008  -0.003916
   24  C  5  Y    0.000009  -0.000001   0.000006   0.000006   0.000427
   25  C  5  Z    0.000013  -0.000001  -0.000099  -0.000002   0.000992
   26  H  6  S   -0.000005   0.000000  -0.000060  -0.000005  -0.000059
   27  H  7  S    0.000008   0.000002  -0.000170  -0.000017  -0.000133
   28  C  8  S    0.000060  -0.000099  -0.005219  -0.001645   0.992066
   29  C  8  S    0.000105  -0.000018  -0.006571  -0.000338   0.036468
   30  C  8  X   -0.000092  -0.000001  -0.001291  -0.000033   0.002438
   31  C  8  Y   -0.000030   0.000008   0.002288   0.000107   0.000230
   32  C  8  Z   -0.000036   0.000011   0.003362   0.000155   0.000261
   33  C  9  S    0.000184  -0.000027   0.001400   0.000052  -0.006205
   34  C  9  S   -0.000044   0.000000   0.000196   0.000014  -0.008291
   35  C  9  X    0.000001  -0.000004  -0.000130  -0.000005   0.003869
   36  C  9  Y    0.000030  -0.000005   0.000104  -0.000001   0.001723
   37  C  9  Z    0.000042  -0.000006   0.000156  -0.000001   0.002179
   38  N 10  S    0.000004   0.000013   0.000022   0.000007   0.000021
   39  N 10  S   -0.000012  -0.000133   0.000286  -0.000055   0.000309
   40  N 10  X    0.000068  -0.000026   0.000093   0.000011   0.000004
   41  N 10  Y    0.000016   0.000054  -0.000057   0.000025   0.000078
   42  N 10  Z    0.000018   0.000075  -0.000071   0.000034   0.000127
   43  H 11  S   -0.000034   0.000004  -0.000079  -0.000003  -0.000080
   44  C 12  S    0.000120   0.001282  -0.002331   0.000806   0.000984
   45  C 12  S   -0.001867   0.001357  -0.007579  -0.000370   0.000170
   46  C 12  X   -0.000724   0.000498   0.004635   0.000230   0.000023
   47  C 12  Y    0.000651  -0.000259   0.000357   0.000160  -0.000114
   48  C 12  Z    0.000979  -0.000405   0.000180   0.000212  -0.000167
   49  C 13  S    0.009044  -0.004408   0.991498   0.031127   0.006187
   50  C 13  S   -0.006394  -0.000398   0.036881   0.001551  -0.006380
   51  C 13  X    0.001874  -0.000085   0.001515  -0.000101   0.001549
   52  C 13  Y    0.002288   0.000142   0.000042  -0.000040  -0.002345
   53  C 13  Z    0.003153   0.000208  -0.000096  -0.000053  -0.003462
   54  C 14  S    0.951699   0.014187  -0.008504  -0.020949  -0.000226
   55  C 14  S    0.034925   0.000758  -0.006953  -0.008463   0.000129
   56  C 14  X    0.001140   0.000040  -0.001924  -0.002731  -0.000168
   57  C 14  Y   -0.000041   0.000005  -0.002341   0.001978   0.000048
   58  C 14  Z   -0.000136   0.000003  -0.003218   0.003004   0.000083
   59  H 15  S   -0.006574  -0.000170   0.000093   0.000252  -0.000130
   60  C 16  S    0.020093   0.010605  -0.031238   0.991367   0.001488
   61  C 16  S   -0.006558  -0.006642  -0.000896   0.036873   0.000038
   62  C 16  X    0.002286  -0.004345  -0.000142   0.000212  -0.000021
   63  C 16  Y   -0.002029  -0.000381  -0.000018   0.000720  -0.000014
   64  C 16  Z   -0.003047  -0.000256  -0.000018   0.001015  -0.000020
   65  H 17  S   -0.000061   0.000023   0.000122  -0.006888  -0.000018
   66  C 18  S    0.028326   0.980785   0.005174  -0.009032   0.000153
   67  C 18  S   -0.000964   0.037205   0.000277  -0.007368  -0.000002
   68  C 18  X   -0.000543   0.000063  -0.000049   0.004469   0.000016
   69  C 18  Y   -0.000696   0.001006  -0.000114   0.000184  -0.000009
   70  C 18  Z   -0.000953   0.001411  -0.000161  -0.000031  -0.000014
   71  H 19  S   -0.000252  -0.006805  -0.000097   0.000148  -0.000009
   72  C 20  S    0.278276  -0.148052   0.001359   0.002669   0.000243
   73  C 20  S    0.010066  -0.012875   0.000356   0.000463  -0.000096
   74  C 20  X   -0.000210   0.002404  -0.000085  -0.000062   0.000072
   75  C 20  Y    0.000034   0.002358   0.000050  -0.000051  -0.000022
   76  C 20  Z    0.000067   0.003187   0.000077  -0.000067  -0.000036
   77  H 21  S   -0.001959   0.001128  -0.000070  -0.000096  -0.000009
   78  H 22  S   -0.000010   0.000003  -0.000117  -0.000003   0.000199
   79  H 23  S    0.000007   0.000000   0.000010   0.000001  -0.000019
   80  H 24  S   -0.000053   0.000001  -0.000158  -0.000006  -0.000189
   81  H 25  S    0.000002  -0.000000   0.000005   0.000000  -0.000004
   82  O 26  S    0.000000   0.000000  -0.000000  -0.000000   0.000003
   83  O 26  S   -0.000000  -0.000000   0.000002   0.000000  -0.000029
   84  O 26  X    0.000000   0.000000   0.000001   0.000000   0.000003
   85  O 26  Y    0.000000   0.000000  -0.000001  -0.000000   0.000023
   86  O 26  Z   -0.000000  -0.000000  -0.000002  -0.000000   0.000015
   87  H 27  S    0.000001   0.000000   0.000001   0.000000  -0.000004

                     16         17         18         19         20
                   -1.3477    -1.2578    -1.2200    -1.1538    -1.0745
                     A          A          A          A          A   
    1  N  1  S   -0.014864  -0.016169  -0.003936  -0.192009   0.005905
    2  N  1  S    0.045341   0.051430   0.012857   0.642898  -0.020391
    3  N  1  X    0.009871   0.006467   0.001667   0.038009   0.000937
    4  N  1  Y   -0.004064  -0.003044  -0.001005  -0.059445   0.002164
    5  N  1  Z   -0.000556  -0.000056  -0.001803  -0.080578   0.002039
    6  C  2  S   -0.026647  -0.004843  -0.005312  -0.113262  -0.001364
    7  C  2  S    0.065573   0.008454   0.013398   0.295158   0.003842
    8  C  2  X    0.007828  -0.012239   0.000599  -0.080462   0.005238
    9  C  2  Y   -0.000604   0.005299   0.002727   0.018051   0.001671
   10  C  2  Z    0.026938   0.000803  -0.001989   0.007468  -0.003201
   11  C  3  S   -0.134606   0.033473   0.001078  -0.006476  -0.000247
   12  C  3  S    0.316154  -0.071207  -0.002429   0.016219   0.000689
   13  C  3  X    0.048075  -0.170404  -0.003405  -0.022651  -0.000355
   14  C  3  Y   -0.015481   0.115830   0.002258  -0.001902   0.000506
   15  C  3  Z    0.059778   0.045798  -0.002775  -0.057639  -0.000610
   16  O  4  S   -0.144967   0.163652   0.003895   0.010335   0.000472
   17  O  4  S    0.498670  -0.575282  -0.013717  -0.036576  -0.001816
   18  O  4  X   -0.109494   0.094624   0.002767   0.003736   0.000002
   19  O  4  Y    0.064432  -0.052165  -0.000942  -0.004543  -0.000055
   20  O  4  Z   -0.013351   0.025967  -0.000493  -0.007776  -0.000185
   21  C  5  S   -0.006145  -0.001044  -0.012879  -0.047196  -0.008371
   22  C  5  S    0.014434   0.002735   0.034892   0.122489   0.022923
   23  C  5  X   -0.001553  -0.002154   0.012529  -0.019791   0.004318
   24  C  5  Y   -0.004349  -0.000107  -0.002502  -0.025566  -0.002463
   25  C  5  Z    0.004138   0.001150  -0.003013   0.017364  -0.003955
   26  H  6  S    0.002763   0.000981   0.005518   0.024090   0.003284
   27  H  7  S    0.001601   0.000507   0.005243   0.025188   0.006460
   28  C  8  S   -0.002114   0.001432  -0.059386  -0.012587  -0.012115
   29  C  8  S    0.004874  -0.003588   0.137265   0.030578   0.034105
   30  C  8  X   -0.001031  -0.000770   0.051447  -0.014194  -0.010106
   31  C  8  Y   -0.000369   0.000599   0.001660   0.000057  -0.021737
   32  C  8  Z    0.001417  -0.000942  -0.001302   0.004443  -0.029917
   33  C  9  S   -0.001187   0.001704  -0.097166   0.000547   0.038225
   34  C  9  S    0.002974  -0.004209   0.224718  -0.000366  -0.097943
   35  C  9  X   -0.000807   0.000233   0.043014  -0.009459  -0.041105
   36  C  9  Y   -0.001024   0.001334  -0.039096  -0.000249   0.006701
   37  C  9  Z    0.000225   0.000000  -0.060923   0.001114   0.013486
   38  N 10  S   -0.000580   0.001777  -0.178031   0.011364   0.070160
   39  N 10  S    0.001747  -0.005623   0.575737  -0.037880  -0.239640
   40  N 10  X   -0.000382   0.000808  -0.061294   0.000969   0.006041
   41  N 10  Y   -0.000038   0.000205  -0.024221   0.001741  -0.020802
   42  N 10  Z    0.000045   0.000022  -0.014970   0.001414  -0.037175
   43  H 11  S    0.000208  -0.000810   0.090030  -0.007226  -0.057170
   44  C 12  S   -0.000332   0.001002  -0.103972   0.005664  -0.058936
   45  C 12  S    0.000695  -0.002249   0.240492  -0.013665   0.154578
   46  C 12  X   -0.000143   0.000198  -0.010113  -0.002156  -0.031507
   47  C 12  Y    0.000121  -0.000418   0.044038  -0.002978  -0.055633
   48  C 12  Z    0.000193  -0.000620   0.061988  -0.003920  -0.076976
   49  C 13  S   -0.000539   0.000803  -0.061724  -0.001809  -0.085956
   50  C 13  S    0.001246  -0.001826   0.142776   0.005023   0.218936
   51  C 13  X   -0.000070  -0.000279   0.039158  -0.004963   0.013195
   52  C 13  Y    0.000176  -0.000162   0.017253   0.001256  -0.032078
   53  C 13  Z    0.000533  -0.000529   0.021241   0.002764  -0.047325
   54  C 14  S   -0.000122   0.000192  -0.018029  -0.001110  -0.108177
   55  C 14  S    0.000320  -0.000480   0.045333   0.002978   0.274832
   56  C 14  X    0.000044  -0.000127   0.012336  -0.000387   0.062741
   57  C 14  Y    0.000070  -0.000095   0.007889   0.000625  -0.002792
   58  C 14  Z    0.000115  -0.000148   0.010459   0.001103  -0.008154
   59  H 15  S    0.000029  -0.000065   0.006218   0.000979   0.051475
   60  C 16  S   -0.000029   0.000086  -0.010426   0.000068  -0.113296
   61  C 16  S    0.000065  -0.000202   0.024716  -0.000148   0.285821
   62  C 16  X   -0.000008  -0.000005   0.001908  -0.000511   0.025120
   63  C 16  Y    0.000017  -0.000045   0.004702   0.000044   0.034202
   64  C 16  Z    0.000024  -0.000059   0.006573   0.000127   0.047002
   65  H 17  S    0.000007  -0.000023   0.003053  -0.000002   0.052959
   66  C 18  S   -0.000021   0.000094  -0.012609   0.000760  -0.111657
   67  C 18  S    0.000048  -0.000220   0.029992  -0.001866   0.282626
   68  C 18  X   -0.000004   0.000005  -0.000437  -0.000276  -0.034159
   69  C 18  Y    0.000011  -0.000047   0.006222  -0.000442   0.028935
   70  C 18  Z    0.000015  -0.000068   0.008822  -0.000612   0.043085
   71  H 19  S    0.000005  -0.000026   0.003805  -0.000286   0.052329
   72  C 20  S   -0.000058   0.000241  -0.029683   0.002109  -0.097314
   73  C 20  S    0.000150  -0.000617   0.075701  -0.005415   0.245282
   74  C 20  X   -0.000052   0.000183  -0.020974   0.001177  -0.059396
   75  C 20  Y    0.000032  -0.000120   0.013522  -0.000930  -0.016833
   76  C 20  Z    0.000053  -0.000189   0.020672  -0.001392  -0.020047
   77  H 21  S    0.000017  -0.000086   0.011494  -0.001009   0.044353
   78  H 22  S    0.000746  -0.000898   0.034381   0.000057  -0.022019
   79  H 23  S    0.004946   0.006577   0.002270   0.125787  -0.004515
   80  H 24  S    0.008423  -0.001222   0.002738   0.053726   0.002202
   81  H 25  S    0.005883   0.007658   0.002071   0.124808  -0.004952
   82  O 26  S   -0.150375  -0.165881   0.000470   0.041604  -0.000322
   83  O 26  S    0.531212   0.601124  -0.001738  -0.156776   0.001278
   84  O 26  X   -0.004546  -0.043972  -0.000461  -0.000754   0.000212
   85  O 26  Y   -0.028419  -0.002597   0.000426   0.001980   0.000049
   86  O 26  Z   -0.094022  -0.080356  -0.000056   0.005672  -0.000082
   87  H 27  S    0.081227   0.113369   0.000117  -0.014229  -0.000292

                     21         22         23         24         25
                   -1.0255    -0.9593    -0.9368    -0.9133    -0.8376
                     A          A          A          A          A   
    1  N  1  S    0.060825   0.057920   0.020955  -0.045848   0.039006
    2  N  1  S   -0.214050  -0.209228  -0.076375   0.168685  -0.147361
    3  N  1  X    0.028682   0.059955   0.026929  -0.072306   0.128734
    4  N  1  Y    0.025855   0.026720   0.009398  -0.017383  -0.030881
    5  N  1  Z    0.019526   0.018031   0.006987  -0.016703   0.053875
    6  C  2  S   -0.041882  -0.074108  -0.031063   0.078903  -0.117010
    7  C  2  S    0.118469   0.216453   0.091805  -0.236272   0.366760
    8  C  2  X    0.066239   0.066979   0.023591  -0.049051   0.039351
    9  C  2  Y    0.036159   0.034671   0.009862  -0.005977  -0.117285
   10  C  2  Z   -0.032755  -0.022848  -0.004806   0.004648   0.110800
   11  C  3  S   -0.008488  -0.021288  -0.010004   0.028128  -0.077293
   12  C  3  S    0.025255   0.063275   0.030051  -0.084553   0.243104
   13  C  3  X   -0.014269  -0.030754  -0.014373   0.040845  -0.110862
   14  C  3  Y    0.014577   0.017960   0.007466  -0.013134   0.017027
   15  C  3  Z   -0.028858  -0.055395  -0.024709   0.063296  -0.145972
   16  O  4  S    0.012465   0.017085   0.007346  -0.017633   0.043553
   17  O  4  S   -0.047306  -0.066695  -0.028882   0.070382  -0.179285
   18  O  4  X    0.003743  -0.002119  -0.001487   0.009387  -0.039074
   19  O  4  Y    0.001649   0.002077   0.001132  -0.000427   0.004919
   20  O  4  Z   -0.008481  -0.014844  -0.006847   0.017264  -0.053421
   21  C  5  S   -0.123798  -0.102101  -0.029505   0.038577   0.117784
   22  C  5  S    0.344311   0.288467   0.083285  -0.109164  -0.353746
   23  C  5  X    0.046282  -0.023244  -0.019284   0.066550   0.000219
   24  C  5  Y   -0.013973  -0.018366  -0.006334   0.036254  -0.090585
   25  C  5  Z   -0.006886   0.025757   0.016582  -0.025518   0.068097
   26  H  6  S    0.078959   0.079786   0.026989  -0.025439  -0.130662
   27  H  7  S    0.078476   0.073336   0.021652  -0.038970  -0.153454
   28  C  8  S   -0.138998   0.014013   0.031681  -0.085810   0.006769
   29  C  8  S    0.359821  -0.040078  -0.083643   0.231263  -0.021242
   30  C  8  X   -0.003059  -0.085983  -0.033833   0.103812   0.139388
   31  C  8  Y    0.003754   0.024578   0.033484   0.054369  -0.013841
   32  C  8  Z    0.010729   0.050246   0.054063   0.059036   0.000294
   33  C  9  S   -0.060169   0.020086  -0.039948  -0.124269  -0.052727
   34  C  9  S    0.159963  -0.050524   0.115262   0.346897   0.148644
   35  C  9  X   -0.102151   0.008720   0.074574  -0.079580  -0.008397
   36  C  9  Y   -0.023616   0.012503   0.015378  -0.015484  -0.017518
   37  C  9  Z   -0.025860   0.019955   0.016690  -0.021755  -0.014852
   38  N 10  S    0.067133  -0.017042  -0.066432   0.043265   0.027109
   39  N 10  S   -0.238179   0.064852   0.241634  -0.159444  -0.104203
   40  N 10  X   -0.057978   0.049479   0.037478  -0.106367  -0.111863
   41  N 10  Y    0.019832  -0.011182   0.073828   0.059272   0.015079
   42  N 10  Z    0.024876  -0.016469   0.112152   0.084870   0.025335
   43  H 11  S   -0.073476   0.033687   0.101300  -0.072569  -0.080981
   44  C 12  S    0.039117  -0.023140   0.114564   0.060756   0.004635
   45  C 12  S   -0.104031   0.063910  -0.316248  -0.173505  -0.016318
   46  C 12  X   -0.075253   0.112406   0.047256   0.006816  -0.064673
   47  C 12  Y   -0.004813  -0.024970   0.038767  -0.026674  -0.006363
   48  C 12  Z   -0.000976  -0.043039   0.052841  -0.038144  -0.002547
   49  C 13  S   -0.066106   0.088816   0.084453   0.044231  -0.016433
   50  C 13  S    0.172242  -0.233854  -0.229004  -0.122904   0.042042
   51  C 13  X   -0.042567   0.025165  -0.089593  -0.017341   0.037835
   52  C 13  Y    0.029942   0.018878  -0.039255   0.056058   0.013387
   53  C 13  Z    0.046219   0.027853  -0.048154   0.079074   0.024526
   54  C 14  S   -0.024655   0.102934  -0.069699   0.072876   0.018898
   55  C 14  S    0.067416  -0.277275   0.186916  -0.197754  -0.052607
   56  C 14  X   -0.001001  -0.024866   0.016530  -0.007534   0.012552
   57  C 14  Y    0.021140  -0.014217  -0.067962  -0.017971   0.002416
   58  C 14  Z    0.030578  -0.018089  -0.097875  -0.026056   0.005542
   59  H 15  S    0.019508  -0.072922   0.055853  -0.060736  -0.027202
   60  C 16  S    0.014841   0.031193  -0.135067  -0.012540   0.001329
   61  C 16  S   -0.038166  -0.081992   0.363786   0.035760  -0.003780
   62  C 16  X   -0.028452   0.080130  -0.006030   0.087316   0.025795
   63  C 16  Y    0.002393  -0.024930   0.012772  -0.022752  -0.005331
   64  C 16  Z    0.005341  -0.040776   0.018525  -0.038410  -0.008694
   65  H 17  S   -0.008018  -0.021747   0.106041   0.012022  -0.002386
   66  C 18  S    0.045451  -0.079637  -0.051654  -0.096237  -0.017307
   67  C 18  S   -0.117956   0.212474   0.141902   0.262645   0.048466
   68  C 18  X   -0.006974   0.055295  -0.096190   0.018711  -0.000697
   69  C 18  Y   -0.015668   0.033090  -0.035088   0.009641  -0.002435
   70  C 18  Z   -0.021655   0.043090  -0.043637   0.012147  -0.003349
   71  H 19  S   -0.025746   0.057619   0.041995   0.082906   0.018788
   72  C 20  S    0.059515  -0.111792   0.071842  -0.044526   0.007157
   73  C 20  S   -0.154573   0.298204  -0.194794   0.121152  -0.019759
   74  C 20  X    0.020931  -0.020933   0.022592  -0.003688  -0.010153
   75  C 20  Y   -0.000235  -0.015764  -0.046251  -0.059151  -0.018128
   76  C 20  Z   -0.001682  -0.021038  -0.067036  -0.083988  -0.024682
   77  H 21  S   -0.036906   0.083234  -0.053273   0.034420  -0.014139
   78  H 22  S    0.033847  -0.006716   0.045918   0.102300   0.043143
   79  H 23  S   -0.052348  -0.061240  -0.024363   0.059909  -0.110970
   80  H 24  S    0.030403   0.054545   0.024235  -0.070954   0.137846
   81  H 25  S   -0.060534  -0.072157  -0.028050   0.065112  -0.050934
   82  O 26  S    0.002908   0.010346   0.004917  -0.013068   0.033735
   83  O 26  S   -0.011080  -0.041375  -0.019889   0.053391  -0.142784
   84  O 26  X    0.004140   0.007660   0.003458  -0.008812   0.022646
   85  O 26  Y    0.001605  -0.001018  -0.000983   0.005626  -0.031711
   86  O 26  Z   -0.004110  -0.012289  -0.006316   0.018261  -0.063740
   87  H 27  S   -0.007927  -0.014612  -0.006412   0.016736  -0.038714

                     26         27         28         29         30
                   -0.7831    -0.7494    -0.7106    -0.6926    -0.6692
                     A          A          A          A          A   
    1  N  1  S    0.000046   0.001616  -0.008178  -0.018650  -0.003854
    2  N  1  S   -0.000124  -0.006881   0.031975   0.076138   0.015915
    3  N  1  X    0.003438  -0.001346  -0.053473  -0.082024  -0.036327
    4  N  1  Y   -0.008359  -0.012580  -0.079894   0.006560  -0.097265
    5  N  1  Z    0.007524  -0.002756   0.048061   0.024383   0.090547
    6  C  2  S   -0.003423  -0.004730   0.013425   0.055494   0.002794
    7  C  2  S    0.011068   0.015160  -0.043942  -0.182033  -0.011471
    8  C  2  X    0.001937  -0.000146   0.035496   0.040980   0.036923
    9  C  2  Y   -0.016624  -0.031028  -0.088794   0.092053  -0.086085
   10  C  2  Z    0.016997  -0.021342   0.070456   0.194170   0.040068
   11  C  3  S   -0.007175   0.004297  -0.037114  -0.130736   0.019646
   12  C  3  S    0.023658  -0.015052   0.126163   0.454821  -0.072027
   13  C  3  X   -0.008768   0.000802  -0.035194  -0.079735  -0.003491
   14  C  3  Y    0.002918  -0.012046  -0.000607   0.105826  -0.042343
   15  C  3  Z   -0.011344   0.003825  -0.014997   0.102058  -0.106975
   16  O  4  S    0.004346  -0.001759   0.022115   0.071617  -0.012428
   17  O  4  S   -0.018258   0.007297  -0.099063  -0.324808   0.058636
   18  O  4  X   -0.003535  -0.000915  -0.044918  -0.147127   0.029691
   19  O  4  Y    0.002706  -0.006713   0.015416   0.119711  -0.041189
   20  O  4  Z   -0.005677   0.001130  -0.015700   0.048690  -0.065027
   21  C  5  S    0.014998   0.011270   0.030962  -0.018821   0.010878
   22  C  5  S   -0.047377  -0.035284  -0.096654   0.061158  -0.035692
   23  C  5  X    0.017388   0.006884   0.177279   0.037759   0.159415
   24  C  5  Y   -0.000049  -0.044127  -0.031568   0.113000  -0.010829
   25  C  5  Z    0.010442  -0.053313  -0.049919   0.037257  -0.008797
   26  H  6  S   -0.010114  -0.057273  -0.085335   0.101692  -0.032534
   27  H  7  S   -0.024764   0.013109  -0.077160  -0.002809  -0.079397
   28  C  8  S    0.011404  -0.013685  -0.107953   0.004750  -0.047776
   29  C  8  S   -0.025032   0.050267   0.328893  -0.012421   0.160691
   30  C  8  X   -0.004397  -0.047144  -0.026683  -0.037714  -0.089322
   31  C  8  Y    0.043040  -0.099638  -0.018121   0.026782   0.008646
   32  C  8  Z    0.064298  -0.135001  -0.015126   0.011353   0.038041
   33  C  9  S   -0.079377   0.054548   0.057866   0.004859   0.006830
   34  C  9  S    0.245930  -0.164561  -0.184521  -0.014010  -0.017968
   35  C  9  X    0.025223   0.088074  -0.170195  -0.000583  -0.097167
   36  C  9  Y    0.067827  -0.015639  -0.078257   0.032904   0.073404
   37  C  9  Z    0.095133  -0.025250  -0.092155   0.034944   0.128945
   38  N 10  S    0.004157  -0.038097  -0.012171  -0.003073   0.003599
   39  N 10  S   -0.011447   0.146006   0.046932   0.012964  -0.012970
   40  N 10  X    0.058204   0.128938   0.171371   0.067146   0.337161
   41  N 10  Y    0.107009   0.079231  -0.086325   0.022593   0.053818
   42  N 10  Z    0.152742   0.119965  -0.123846   0.026176   0.085820
   43  H 11  S    0.067381   0.156200   0.088055   0.055303   0.244181
   44  C 12  S    0.041322   0.088336   0.020133  -0.003811  -0.014178
   45  C 12  S   -0.120909  -0.265878  -0.060880   0.012522   0.044945
   46  C 12  X    0.116276  -0.091884   0.188073  -0.037575   0.016517
   47  C 12  Y   -0.092464   0.022129   0.051118  -0.017066  -0.101847
   48  C 12  Z   -0.137037   0.041614   0.062092  -0.025919  -0.133482
   49  C 13  S    0.016619  -0.087470   0.036075  -0.017415  -0.026684
   50  C 13  S   -0.045312   0.260178  -0.100454   0.053157   0.088590
   51  C 13  X   -0.117936  -0.141779  -0.146630   0.022714   0.009561
   52  C 13  Y   -0.089028  -0.005892   0.081175  -0.021463  -0.025185
   53  C 13  Z   -0.117425   0.003347   0.130071  -0.044940  -0.025844
   54  C 14  S   -0.098291  -0.007895  -0.016021   0.007791   0.047610
   55  C 14  S    0.283642   0.028497   0.053511  -0.025711  -0.152717
   56  C 14  X   -0.053314  -0.030350  -0.119100   0.054766   0.156672
   57  C 14  Y    0.026440   0.121865  -0.054181   0.029818   0.032634
   58  C 14  Z    0.041761   0.177225  -0.068301   0.033128   0.040406
   59  H 15  S    0.136800   0.020375   0.100777  -0.051990  -0.176521
   60  C 16  S    0.070345   0.082326  -0.028376   0.007254  -0.025792
   61  C 16  S   -0.205605  -0.240653   0.089605  -0.023375   0.077669
   62  C 16  X   -0.121986   0.122656  -0.097658   0.049509   0.107695
   63  C 16  Y    0.060861   0.005897  -0.041799   0.014815   0.005710
   64  C 16  Z    0.095106   0.000722  -0.052902   0.016119   0.002501
   65  H 17  S   -0.104685  -0.128696   0.100656  -0.036166  -0.000526
   66  C 18  S    0.058311  -0.093072   0.020391  -0.009216   0.013049
   67  C 18  S   -0.171983   0.275513  -0.057368   0.026961  -0.043376
   68  C 18  X    0.126054   0.119631   0.036771  -0.027847  -0.164865
   69  C 18  Y    0.078783  -0.013637  -0.018929   0.001304   0.012064
   70  C 18  Z    0.103986  -0.027278  -0.029223   0.003061   0.029730
   71  H 19  S   -0.088486   0.161045   0.006120   0.000318  -0.095500
   72  C 20  S   -0.100040   0.015864  -0.036876   0.017742   0.022056
   73  C 20  S    0.286416  -0.049241   0.116855  -0.056990  -0.075444
   74  C 20  X    0.050115   0.023810   0.136835  -0.053409  -0.138622
   75  C 20  Y    0.015280  -0.122150   0.030357  -0.004071   0.056133
   76  C 20  Z    0.018709  -0.174155   0.034397  -0.003363   0.093016
   77  H 21  S    0.139825  -0.010887   0.137622  -0.058400  -0.119783
   78  H 22  S    0.157697  -0.083596  -0.158061   0.025928   0.088355
   79  H 23  S   -0.008147  -0.004242  -0.031242   0.039306  -0.075309
   80  H 24  S    0.008530   0.033077   0.014264  -0.193383   0.036164
   81  H 25  S    0.004693   0.005699   0.084824   0.049695   0.096890
   82  O 26  S    0.003060  -0.003184   0.011467   0.045428  -0.002471
   83  O 26  S   -0.013292   0.014180  -0.051097  -0.204991   0.010873
   84  O 26  X    0.003272  -0.006325   0.039854   0.295888  -0.137705
   85  O 26  Y   -0.003703  -0.000491  -0.042933  -0.182379   0.064052
   86  O 26  Z   -0.007298   0.008899  -0.036791  -0.170173   0.022034
   87  H 27  S   -0.003866   0.003276  -0.038996  -0.239715   0.109466

                     31         32         33         34         35
                   -0.6484    -0.6169    -0.6023    -0.5984    -0.5808
                     A          A          A          A          A   
    1  N  1  S   -0.020560  -0.010144   0.000838  -0.003085  -0.004471
    2  N  1  S    0.094498   0.048146  -0.004770   0.017719   0.029112
    3  N  1  X    0.047310   0.124390  -0.017725   0.100269   0.400449
    4  N  1  Y    0.035426   0.392981   0.050273  -0.084676  -0.092452
    5  N  1  Z    0.214876  -0.187055  -0.058144   0.131453   0.100547
    6  C  2  S    0.028508  -0.018311  -0.004903   0.008413  -0.030241
    7  C  2  S   -0.096236   0.070905   0.016523  -0.027215   0.120243
    8  C  2  X    0.012539  -0.040820   0.019292  -0.093163  -0.338063
    9  C  2  Y    0.144601   0.227277   0.002057   0.009876   0.039827
   10  C  2  Z    0.279282   0.023306  -0.029409   0.081140   0.010971
   11  C  3  S   -0.002343   0.003964   0.004321  -0.006979   0.045310
   12  C  3  S   -0.001020  -0.013643  -0.014472   0.024404  -0.152341
   13  C  3  X   -0.060707   0.018261   0.026030  -0.067820  -0.107159
   14  C  3  Y   -0.001441   0.084634   0.019001  -0.024816   0.029071
   15  C  3  Z   -0.256401  -0.027102  -0.002463   0.017793   0.230000
   16  O  4  S   -0.022068  -0.010810   0.000920  -0.006493  -0.044824
[...]
 23   H            X -0.00738615 -0.00003014 -0.00034334 -0.00005766 -0.00002874
                   Y  0.00967021  0.00002039  0.00153470  0.00011050  0.00004456
                   Z -0.01201301  0.00007679 -0.00278427 -0.00014150 -0.00002160
 24   H            X -0.14380960 -0.00017234 -0.00328345 -0.00031362 -0.00013887
                   Y  0.79278038  0.00075595  0.03575201  0.00277221  0.00101089
                   Z  0.50757451  0.00061366  0.01851139  0.00159750  0.00064773
 25   H            X -0.00659236  0.00003402 -0.00089423 -0.00004455 -0.00001208
                   Y -0.01802832  0.00007001 -0.00260538 -0.00015238 -0.00001667
                   Z  0.00827646  0.00003722  0.00097787  0.00007291  0.00003174
 26   O            X  0.00022165  0.00000197  0.00000339  0.00000150  0.00000228
                   Y -0.00004602 -0.00000268  0.00004284  0.00000229 -0.00000065
                   Z  0.00063603 -0.00000039  0.00003545  0.00000200  0.00000272
 27   H            X -0.00473503 -0.00007945 -0.00008937 -0.00002023 -0.00004696
                   Y  0.00209389  0.00006488 -0.00029793 -0.00001610  0.00002631
                   Z  0.00144334  0.00001675  0.00051144  0.00003632 -0.00000170

 TRANS. SAYVETZ    X -0.00000018  0.00000058  0.00000000 -0.00000002 -0.00000045
                   Y -0.00000001 -0.00000016  0.00000013 -0.00000024  0.00000044
                   Z  0.00000009  0.00000018  0.00000015  0.00000037  0.00000030
               TOTAL  0.00000020  0.00000062  0.00000020  0.00000044  0.00000070

   ROT. SAYVETZ    X  0.00000716  0.00000091 -0.00001251 -0.00000138  0.00000213
                   Y  0.00001258 -0.00001212  0.00000729 -0.00000609 -0.00000032
                   Z -0.00001620  0.00000926 -0.00000558 -0.00000814  0.00000250
               TOTAL  0.00002172  0.00001528  0.00001552  0.00001025  0.00000330

                         76          77          78          79          80
       FREQUENCY:      3742.41     3756.48     3922.42     4104.47     4144.60  
        SYMMETRY:         A           A           A           A           A   
    REDUCED MASS:      1.10450     1.10385     1.05414     1.09332     1.08359
    IR INTENSITY:      0.08575     0.68164     0.01271     0.00561     2.24859

  1   N            X  0.00000147 -0.00000641 -0.04656526  0.00067670  0.00001876
                   Y  0.00000029  0.00000600 -0.02126328 -0.06243338 -0.00003287
                   Z -0.00000741 -0.00003335 -0.02696282  0.04602158  0.00001678
  2   C            X -0.00001519 -0.00001946  0.00327279  0.00011519  0.00001595
                   Y  0.00005988  0.00002026 -0.00368854  0.00008131 -0.00001492
                   Z  0.00003292  0.00004635 -0.00378130  0.00009779 -0.00000989
  3   C            X -0.00000152  0.00003052  0.00013906 -0.00033522  0.00001121
                   Y  0.00000400  0.00001406 -0.00004678  0.00002163  0.00000712
                   Z  0.00001224  0.00010327  0.00028262 -0.00006493  0.00006670
  4   O            X  0.00000156 -0.00001642 -0.00008051  0.00004546 -0.00000636
                   Y -0.00000017 -0.00000298  0.00003371 -0.00001693  0.00000021
                   Z -0.00000419 -0.00002718 -0.00005286  0.00000364 -0.00002235
  5   C            X  0.00011045 -0.00079667  0.00028826  0.00001161 -0.00019122
                   Y  0.00016177  0.00052520 -0.00003700  0.00007848  0.00000752
                   Z  0.00034490  0.00022845 -0.00016390 -0.00013472  0.00004163
  6   H            X  0.00025090  0.00119680  0.00002990  0.00029321  0.00044627
                   Y -0.00231377 -0.00603391  0.00282138  0.00010391 -0.00030587
                   Z -0.00160036 -0.00426557  0.00118182 -0.00006891 -0.00030158
  7   H            X -0.00168921  0.00000594  0.00094402 -0.00025957  0.00048512
                   Y  0.00034577 -0.00014665 -0.00068559  0.00058828  0.00003744
                   Z -0.00252579  0.00123115  0.00109966 -0.00071279  0.00008967
  8   C            X  0.00005457  0.00690437 -0.00000503 -0.00002820  0.00129945
                   Y  0.00007607  0.00278137  0.00003149  0.00000876  0.00102072
                   Z  0.00010418  0.00354804  0.00002506 -0.00001932  0.00134405
  9   C            X -0.00010525 -0.00780611  0.00000375  0.00000638  0.00177690
                   Y -0.00031856 -0.05054377  0.00001328  0.00001004 -0.00181341
                   Z -0.00045489 -0.07216931  0.00002118  0.00001915 -0.00312886
 10   N            X -0.00006986 -0.00087902 -0.00000235  0.00004572 -0.06821752
                   Y  0.00000922  0.00106358 -0.00000021  0.00001080 -0.01320672
                   Z  0.00004557  0.00183677 -0.00000269  0.00001762 -0.02289916
 11   H            X -0.00008319 -0.01836136  0.00012439 -0.00072321  0.89261177
                   Y  0.00026839 -0.00537368  0.00001160 -0.00012654  0.16534125
                   Z  0.00021186 -0.00937775  0.00004183 -0.00021575  0.30508395
 12   C            X  0.00169687 -0.00026698 -0.00000261 -0.00000470  0.00068415
                   Y -0.00133077  0.00132429 -0.00000068  0.00000016  0.00177216
                   Z -0.00201860  0.00196298 -0.00000001  0.00000282  0.00209129
 13   C            X -0.00086229 -0.00028020 -0.00000352 -0.00000651  0.00114777
                   Y -0.00097728  0.00065983 -0.00000636 -0.00000516 -0.00053877
                   Z -0.00134499  0.00093814 -0.00000400 -0.00000542 -0.00089628
 14   C            X  0.02874828  0.00061063 -0.00000355  0.00000113 -0.00025574
                   Y  0.00048400 -0.00023615  0.00000213 -0.00000036  0.00032872
                   Z -0.00114214 -0.00038251 -0.00000268 -0.00000023  0.00052492
 15   H            X -0.30062015 -0.00726765 -0.00000733 -0.00003266  0.00091401
                   Y -0.02020496 -0.00055944 -0.00000383 -0.00000482 -0.00008398
                   Z -0.00975816 -0.00038831  0.00004983 -0.00001751 -0.00010190
 16   C            X  0.02132079 -0.00081436  0.00000207 -0.00000164  0.00068306
                   Y  0.02520024 -0.00035837 -0.00000191  0.00000130 -0.00005477
                   Z  0.03458179 -0.00045347 -0.00000362  0.00000200 -0.00012671
 17   H            X -0.22148552  0.00397128  0.00002190 -0.00001031 -0.00057954
                   Y -0.27039789  0.00483271  0.00002657 -0.00000373 -0.00058106
                   Z -0.37151733  0.00664087  0.00004039 -0.00000514 -0.00084665
 18   C            X -0.02727457 -0.00019309 -0.00000184  0.00000081 -0.00059602
                   Y  0.02480579  0.00062818  0.00000079  0.00000175 -0.00032551
                   Z  0.03706422  0.00090210  0.00000170  0.00000224 -0.00040324
 19   H            X  0.29616042  0.00608089  0.00001782  0.00000855 -0.00013645
                   Y -0.26041431 -0.00533761 -0.00000949 -0.00000718  0.00004638
                   Z -0.38991387 -0.00800222 -0.00001421 -0.00001041  0.00001323
 20   C            X -0.04546074  0.00216948  0.00000595 -0.00000017  0.00004531
                   Y -0.00482401 -0.00031201  0.00000039 -0.00000152  0.00040365
                   Z -0.00373420 -0.00058719 -0.00000064 -0.00000262  0.00060093
 21   H            X  0.48727570 -0.02180716 -0.00005868 -0.00000031 -0.00061895
                   Y  0.03304389 -0.00135586 -0.00000262  0.00000333 -0.00010690
                   Z  0.01360678 -0.00040236 -0.00000051  0.00000721 -0.00034009
 22   H            X  0.00039036  0.05395493 -0.00000005 -0.00000712 -0.00036099
                   Y  0.00426970  0.54173552 -0.00014416 -0.00003165  0.00968820
                   Z  0.00609991  0.77482768 -0.00021391 -0.00003261  0.01420566
 23   H            X  0.00002353  0.00001736  0.28613519 -0.29514515 -0.00035037
                   Y -0.00003804 -0.00003029 -0.30337114  0.27978576  0.00029843
                   Z  0.00005891  0.00016542  0.52311956 -0.55978316 -0.00048811
 24   H            X  0.00009767  0.00013068  0.00374458 -0.00062512  0.00000964
                   Y -0.00075007 -0.00085823  0.01994429  0.00242910 -0.00014256
                   Z -0.00046471 -0.00057509  0.01081744  0.00047722 -0.00010570
 25   H            X  0.00003120  0.00027454  0.31286787  0.28864310  0.00029688
                   Y  0.00003608  0.00019372  0.62038277  0.58345341  0.00037475
                   Z -0.00000713  0.00002734 -0.11958193 -0.07711526  0.00002164
 26   O            X -0.00000292 -0.00001103 -0.00048833  0.00078708 -0.00006054
                   Y -0.00000046 -0.00001543  0.00021667 -0.00025979  0.00001583
                   Z -0.00000839 -0.00003174 -0.00012935  0.00025457 -0.00004716
 27   H            X  0.00005305  0.00004207  0.00823492 -0.01251844  0.00090183
                   Y -0.00002295  0.00009101 -0.00305176  0.00318442 -0.00030066
                   Z  0.00004545  0.00021705  0.00418913 -0.00507604  0.00056394

 TRANS. SAYVETZ    X -0.00000016  0.00000056 -0.00000023  0.00000001 -0.00000048
                   Y -0.00000045 -0.00000003 -0.00000088 -0.00000002  0.00000080
                   Z -0.00000017 -0.00000069 -0.00000025  0.00000011 -0.00000021
               TOTAL  0.00000051  0.00000089  0.00000094  0.00000011  0.00000095

   ROT. SAYVETZ    X -0.00000267  0.00002650 -0.00000444 -0.00000573 -0.00003725
                   Y -0.00000087 -0.00000750 -0.00000376  0.00000598  0.00006566
                   Z  0.00000838 -0.00000439 -0.00000817 -0.00000741  0.00008623
               TOTAL  0.00000884  0.00002788  0.00001003  0.00001111  0.00011460

                         81
       FREQUENCY:      4205.06  
        SYMMETRY:         A   
    REDUCED MASS:      1.06545
    IR INTENSITY:      1.18356

  1   N            X  0.00040245
                   Y -0.00074337
                   Z  0.00060821
  2   C            X  0.00070855
                   Y -0.00056031
                   Z -0.00051559
  3   C            X -0.00231967
                   Y  0.00089132
                   Z -0.00138283
  4   O            X  0.00127713
                   Y -0.00083806
                   Z -0.00022064
  5   C            X -0.00016131
                   Y -0.00006127
                   Z  0.00003031
  6   H            X  0.00029997
                   Y  0.00011135
                   Z  0.00024370
  7   H            X  0.00002100
                   Y  0.00075169
                   Z -0.00110140
  8   C            X -0.00002712
                   Y -0.00001786
                   Z  0.00000820
  9   C            X -0.00000958
                   Y  0.00000743
                   Z  0.00001411
 10   N            X  0.00007899
                   Y  0.00001951
                   Z  0.00001006
 11   H            X -0.00102915
                   Y -0.00025297
                   Z -0.00031138
 12   C            X  0.00001517
                   Y -0.00000540
                   Z  0.00000253
 13   C            X -0.00001581
                   Y  0.00000072
                   Z  0.00000293
 14   C            X  0.00000071
                   Y  0.00000429
                   Z  0.00000309
 15   H            X  0.00009267
                   Y -0.00000345
                   Z  0.00000501
 16   C            X  0.00000293
                   Y -0.00000231
                   Z -0.00000487
 17   H            X  0.00002164
                   Y  0.00000603
                   Z  0.00001453
 18   C            X -0.00000067
                   Y -0.00000495
                   Z -0.00000762
 19   H            X -0.00003944
                   Y  0.00002551
                   Z  0.00004378
 20   C            X -0.00000699
                   Y  0.00000397
                   Z  0.00000269
 21   H            X  0.00001685
                   Y -0.00000782
                   Z  0.00000251
 22   H            X -0.00004263
                   Y -0.00011744
                   Z -0.00003851
 23   H            X -0.00846100
                   Y  0.00932369
                   Z -0.01162879
 24   H            X -0.00386411
                   Y  0.00315407
                   Z  0.00071989
 25   H            X  0.00074161
                   Y  0.00240021
                   Z  0.00122330
 26   O            X -0.05282485
                   Y  0.01884835
                   Z -0.02128513
 27   H            X  0.84524882
                   Y -0.29421342
                   Z  0.36554164

 TRANS. SAYVETZ    X -0.00000036
                   Y -0.00000018
                   Z  0.00000021
               TOTAL  0.00000045

   ROT. SAYVETZ    X -0.00001832
                   Y -0.00003217
                   Z  0.00001397
               TOTAL  0.00003957

 REFERENCE ON SAYVETZ CONDITIONS - A. SAYVETZ, J.CHEM.PHYS., 7, 383-389(1939).

 NOTE - THE MODES J,K ARE ORTHONORMALIZED ACCORDING TO
 SUM ON I   M(I) * (X(I,J)*X(I,K) + Y(I,J)*Y(I,K) + Z(I,J)*Z(I,K)) = DELTA(J,K)

  MODE FREQ(CM**-1)  SYMMETRY  RED. MASS  IR INTENS.
     1       0.747    A        5.551369    0.003666
     2       0.708    A        6.650665    0.002396
     3       0.130    A        7.282953    0.000132
     4       0.079    A        7.670844    0.000066
     5       0.312    A        7.444585    0.000231
     6       1.572    A        5.454144    0.015020
     7      24.371    A        6.534531    0.060533
     8      43.234    A        5.797152    0.038414
     9      61.885    A        6.841918    0.065565
    10      86.699    A        4.499314    0.077128
    11     157.610    A        5.748494    0.010338
    12     234.580    A        3.119417    0.897779
    13     258.705    A        3.752226    0.078227
    14     279.225    A        2.825908    0.875345
    15     285.726    A        1.346328    0.628463
    16     320.177    A        1.906091    1.026194
    17     336.169    A        2.630424    0.212948
    18     349.236    A        3.585986    0.058991
    19     460.380    A        3.082361    0.609431
    20     499.462    A        3.065342    0.005236
    21     521.064    A        3.349262    0.029799
    22     547.181    A        6.776234    0.171325
    23     615.449    A        5.491336    0.008284
    24     656.938    A        3.120519    0.027721
    25     659.693    A        4.735153    0.130042
    26     681.804    A        4.407652    0.182158
    27     726.869    A        1.976545    1.421964
    28     734.362    A        1.581909    1.322744
    29     770.003    A        4.615358    0.030608
    30     854.529    A        4.854877    0.338593
    31     865.850    A        4.513248    0.089976
    32     896.147    A        2.878575    0.119131
    33     899.755    A        1.816392    0.368901
    34     917.029    A        3.190896    0.108200
    35    1004.726    A        4.072561    0.011379
    36    1013.758    A        1.474627    0.061308
    37    1035.323    A        1.357137    0.001026
    38    1110.045    A        1.552648    0.505034
    39    1139.595    A        1.668584    1.148354
    40    1157.211    A        1.327650    0.024542
    41    1183.615    A        2.222011    0.038012
    42    1192.909    A        2.068073    0.604494
    43    1193.308    A        1.310131    0.056614
    44    1229.952    A        2.119852    0.532257
    45    1249.035    A        1.923566    0.414644
    46    1276.116    A        2.352786    0.758834
    47    1306.299    A        2.587446    0.049002
    48    1326.570    A        1.351484    0.164558
    49    1359.433    A        1.383301    0.064785
    50    1400.322    A        1.453034    0.225009
    51    1430.301    A        1.994073    0.650446
    52    1444.901    A        2.249675    0.202050
    53    1457.965    A        1.606398    0.592808
    54    1481.463    A        1.333587    0.050717
    55    1521.641    A        2.251658    0.550492
    56    1559.652    A        1.567050    0.220267
    57    1596.628    A        1.913817    0.212097
    58    1630.451    A        1.496625    0.835265
    59    1653.483    A        1.550266    4.182720
    60    1669.543    A        1.725178    0.922208
    61    1689.850    A        2.837372    0.518974
    62    1743.654    A        2.589900    1.012237
    63    1792.611    A        3.430222    0.206387
    64    1815.592    A        1.102511    0.003157
    65    1892.637    A        6.319404    0.372600
    66    1928.909    A        6.638773    0.147278
    67    1974.538    A        6.308417    0.330103
    68    2003.878    A        1.099645    0.235876
    69    2155.117    A        8.208354    2.136435
    70    3597.983    A        1.066193    0.074427
    71    3624.362    A        1.091064    0.036175
    72    3708.729    A        1.089301    0.077649
    73    3716.019    A        1.109842    0.007768
    74    3721.781    A        1.094114    0.130429
    75    3733.955    A        1.100642    0.106847
    76    3742.407    A        1.104505    0.085749
    77    3756.475    A        1.103855    0.681640
    78    3922.416    A        1.054136    0.012709
    79    4104.466    A        1.093320    0.005606
    80    4144.605    A        1.083592    2.248588
    81    4205.056    A        1.065451    1.183561

     -------------------------------
     THERMOCHEMISTRY AT T=  298.15 K
     -------------------------------

 USING IDEAL GAS, RIGID ROTOR, HARMONIC NORMAL MODE APPROXIMATIONS.
 P=  1.01325E+05 PASCAL.
 ALL FREQUENCIES ARE SCALED BY   1.00000
 THE MOMENTS OF INERTIA ARE (IN AMU*BOHR**2)
   1460.11867  4991.97583  5674.09366
 THE ROTATIONAL SYMMETRY NUMBER IS  1.0
 THE ROTATIONAL CONSTANTS ARE (IN GHZ)
      1.23489     0.36120     0.31778
 THE HARMONIC ZERO POINT ENERGY IS (SCALED BY   1.000)
        0.253659 HARTREE/MOLECULE    55671.706441 CM**-1/MOLECULE 
      159.173556 KCAL/MOL              665.982158 KJ/MOL

               Q               LN Q
 ELEC.     1.00000E+00       0.000000
 TRANS.    1.14600E+08      18.556961
 ROT.      2.30208E+06      14.649323
 VIB.      1.58667E+04       9.671977
 TOT.      4.18593E+18      42.878261

              E         H         G         CV        CP        S
           KJ/MOL    KJ/MOL    KJ/MOL   J/MOL-K   J/MOL-K   J/MOL-K
 ELEC.      0.000     0.000     0.000     0.000     0.000     0.000
 TRANS.     3.718     6.197   -46.002    12.472    20.786   175.076
 ROT.       3.718     3.718   -36.315    12.472    12.472   134.272
 VIB.     690.351   690.351   642.006   164.689   164.689   162.150
 TOTAL    697.788   700.267   559.689   189.632   197.947   471.498
 VIB. THERMAL CORRECTION E(T)-E(0) = H(T)-H(0) = 24368.777 J/MOL

              E         H         G         CV        CP        S
         KCAL/MOL  KCAL/MOL  KCAL/MOL CAL/MOL-K CAL/MOL-K CAL/MOL-K
 ELEC.      0.000     0.000     0.000     0.000     0.000     0.000
 TRANS.     0.889     1.481   -10.995     2.981     4.968    41.844
 ROT.       0.889     0.889    -8.679     2.981     2.981    32.092
 VIB.     164.998   164.998   153.443    39.362    39.362    38.755
 TOTAL    166.775   167.368   133.769    45.323    47.310   112.691
 VIB. THERMAL CORRECTION E(T)-E(0) = H(T)-H(0) =  5824.278 CAL/MOL
 ......END OF NORMAL COORDINATE ANALYSIS......
 STEP CPU TIME =     0.08 TOTAL CPU TIME =       91.1 (    1.5 MIN)
 TOTAL WALL CLOCK TIME=       87.4 SECONDS, CPU UTILIZATION IS 104.21%
              1469097  WORDS OF DYNAMIC MEMORY USED
 EXECUTION OF GAMESS TERMINATED NORMALLY Sun Jul 24 18:37:56 2016
 DDI: 263640 bytes (0.3 MB / 0 MWords) used by master data server.

 ----------------------------------------
 CPU timing information for all processes
 ========================================
 0: 88.49 + 3.179 = 91.229
 ----------------------------------------
 ddikick.x: exited gracefully.
----- accounting info -----
Files used on the master node copper were:
-rw-r--r-- 1 eric users  357538 Jul 24 18:37 /tmp/Trp_freq.dat
-rw-r--r-- 1 eric users    1486 Jul 24 18:36 /tmp/Trp_freq.F05
-rw-r--r-- 1 eric users 2159520 Jul 24 18:37 /tmp/Trp_freq.F10
-rw-r--r-- 1 eric users 2481192 Jul 24 18:37 /tmp/Trp_freq.F18
Sun Jul 24 18:37:59 EDT 2016
0.176u 0.056s 1:30.68 0.2%	0+0k 0+8io 0pf+0w
