      -----------------------------------------------------------      
     |                   =====================                   |     
     |                           x T B                           |     
     |                   =====================                   |     
     |                         S. Grimme                         |     
     |          Mulliken Center for Theoretical Chemistry        |     
     |                    University of Bonn                     |     
      -----------------------------------------------------------      

   * xtb version 6.4.1 (unknown) compiled by 'oda6@login1.crc.pitt.edu' on 2021-06-25

   xtb is free software: you can redistribute it and/or modify it under
   the terms of the GNU Lesser General Public License as published by
   the Free Software Foundation, either version 3 of the License, or
   (at your option) any later version.
   
   xtb is distributed in the hope that it will be useful,
   but WITHOUT ANY WARRANTY; without even the implied warranty of
   MERCHANTABILITY or FITNESS FOR A PARTICULAR PURPOSE.  See the
   GNU Lesser General Public License for more details.
   
   Cite this work as:
   * C. Bannwarth, E. Caldeweyher, S. Ehlert, A. Hansen, P. Pracht,
     J. Seibert, S. Spicher, S. Grimme, WIREs Comput. Mol. Sci., 2020, 11,
     e01493. DOI: 10.1002/wcms.1493
   
   for GFN2-xTB:
   * C. Bannwarth, S. Ehlert and S. Grimme., J. Chem. Theory Comput., 2019,
     15, 1652-1671. DOI: 10.1021/acs.jctc.8b01176
   for GFN1-xTB:
   * S. Grimme, C. Bannwarth, P. Shushkov, J. Chem. Theory Comput., 2017,
     13, 1989-2009. DOI: 10.1021/acs.jctc.7b00118
   for GFN0-xTB:
   * P. Pracht, E. Caldeweyher, S. Ehlert, S. Grimme, ChemRxiv, 2019, preprint.
     DOI: 10.26434/chemrxiv.8326202.v1
   for GFN-FF:
   * S. Spicher and S. Grimme, Angew. Chem. Int. Ed., 2020, 59, 15665-15673.
     DOI: 10.1002/anie.202004239
   
   for DFT-D4:
   * E. Caldeweyher, C. Bannwarth and S. Grimme, J. Chem. Phys., 2017,
     147, 034112. DOI: 10.1063/1.4993215
   * E. Caldeweyher, S. Ehlert, A. Hansen, H. Neugebauer, S. Spicher,
     C. Bannwarth and S. Grimme, J. Chem. Phys., 2019, 150, 154122.
     DOI: 10.1063/1.5090222
   * E. Caldeweyher, J.-M. Mewes, S. Ehlert and S. Grimme, Phys. Chem. Chem. Phys.
     2020, 22, 8499-8512. DOI: 10.1039/D0CP00502A
   
   for sTDA-xTB:
   * S. Grimme and C. Bannwarth, J. Chem. Phys., 2016, 145, 054103.
     DOI: 10.1063/1.4959605
   
   in the mass-spec context:
   * V. Asgeirsson, C. Bauer and S. Grimme, Chem. Sci., 2017, 8, 4879.
     DOI: 10.1039/c7sc00601b
   * J. Koopman and S. Grimme, ACS Omega 2019, 4, 12, 15120-15133.
     DOI: 10.1021/acsomega.9b02011
   
   for metadynamics refer to:
   * S. Grimme, J. Chem. Theory Comput., 2019, 155, 2847-2862
     DOI: 10.1021/acs.jctc.9b00143
   
   for SPH calculations refer to:
   * S. Spicher and S. Grimme, J. Chem. Theory Comput., 2021, 17, 1701-1714
     DOI: 10.1021/acs.jctc.0c01306
   
   with help from (in alphabetical order)
   P. Atkinson, C. Bannwarth, F. Bohle, G. Brandenburg, E. Caldeweyher
   M. Checinski, S. Dohm, S. Ehlert, S. Ehrlich, I. Gerasimov, J. Koopman
   C. Lavigne, S. Lehtola, F. März, M. Müller, F. Musil, H. Neugebauer
   J. Pisarek, C. Plett, P. Pracht, J. Seibert, P. Shushkov, S. Spicher
   M. Stahn, M. Steiner, T. Strunk, J. Stückrath, T. Rose, and J. Unsleber
   
 * started run on 2022/05/03 at 13:16:22.934     

           -------------------------------------------------
          |                Calculation Setup                |
           -------------------------------------------------

          program call               : /ihome/ghutchison/oda6/xtb/xtb-641//bin/xtb dvb_gopt.xyz --opt
          hostname                   : login0.crc.pitt.edu
          coordinate file            : dvb_gopt.xyz
          omp threads                :                    12
          number of atoms            :                    19
          number of electrons        :                    46
          charge                     :                     0
          spin                       :                   0.0
          first test random number   :      0.55934505143404

   ID    Z sym.   atoms
    1    6 C      1-5, 10, 11, 14, 15
    2    1 H      6-9, 12, 13, 16-19

molecular fragmentation (1/2 indicates fragments):
1111111111212121212
# atoms in fragment 1/2:    14     5
 fragment masses (1/2) :       91.13       27.05
CMA distance (Bohr)    :   8.792
constraining FC (au)   :  0.0500

           -------------------------------------------------
          |                 G F N 2 - x T B                 |
           -------------------------------------------------

        Reference                      10.1021/acs.jctc.8b01176
      * Hamiltonian:
        H0-scaling (s, p, d)           1.850000    2.230000    2.230000
        zeta-weighting                 0.500000
      * Dispersion:
        s8                             2.700000
        a1                             0.520000
        a2                             5.000000
        s9                             5.000000
      * Repulsion:
        kExp                           1.500000    1.000000
        rExp                           1.000000
      * Coulomb:
        alpha                          2.000000
        third order                    shell-resolved
        anisotropic                    true
        a3                             3.000000
        a5                             4.000000
        cn-shift                       1.200000
        cn-exp                         4.000000
        max-rad                        5.000000


          ...................................................
          :                      SETUP                      :
          :.................................................:
          :  # basis functions                  46          :
          :  # atomic orbitals                  46          :
          :  # shells                           28          :
          :  # electrons                        46          :
          :  max. iterations                   250          :
          :  Hamiltonian                  GFN2-xTB          :
          :  restarted?                      false          :
          :  GBSA solvation                  false          :
          :  PC potential                    false          :
          :  electronic temp.          300.0000000     K    :
          :  accuracy                    1.0000000          :
          :  -> integral cutoff          0.2500000E+02      :
          :  -> integral neglect         0.1000000E-07      :
          :  -> SCF convergence          0.1000000E-05 Eh   :
          :  -> wf. convergence          0.1000000E-03 e    :
          :  Broyden damping             0.4000000          :
          ...................................................

 iter      E             dE          RMSdq      gap      omega  full diag
   1    -24.2077952 -0.242078E+02  0.520E+00    0.43       0.0  T
   2    -23.7926217  0.415174E+00  0.596E+00    1.26       1.0  T
   3    -24.2197975 -0.427176E+00  0.290E+00    0.44       1.0  T
   4    -24.0178807  0.201917E+00  0.362E+00    0.19       1.0  T
   5    -24.2874372 -0.269557E+00  0.123E+00    0.12       1.0  T
   6    -24.2975225 -0.100853E-01  0.981E-01    0.11       1.0  T
   7    -24.3130599 -0.155375E-01  0.491E-01    0.05       1.0  T
   8    -24.3067096  0.635036E-02  0.740E-01    0.10       1.0  T
   9    -24.3068405 -0.130937E-03  0.672E-01    0.02       1.0  T
  10    -24.3033861  0.345437E-02  0.763E-01    0.11       1.0  T
  11    -24.3176273 -0.142412E-01  0.250E-01    0.04       1.0  T
  12    -24.3192571 -0.162976E-02  0.348E-02    0.05       1.0  T
  13    -24.3192333  0.238008E-04  0.454E-02    0.05       1.0  T
  14    -24.3192838 -0.505202E-04  0.120E-02    0.05       1.9  T
  15    -24.3192854 -0.157123E-05  0.907E-03    0.05       2.5  T
  16    -24.3192873 -0.192417E-05  0.263E-03    0.05       8.7  T
  17    -24.3192875 -0.174559E-06  0.753E-05    0.05     304.8  T
  18    -24.3192875  0.282149E-09  0.115E-04    0.05     199.1  T

   *** convergence criteria satisfied after 18 iterations ***

         #    Occupation            Energy/Eh            Energy/eV
      -------------------------------------------------------------
         1        2.0000           -0.6195595             -16.8591
       ...           ...                  ...                  ...
        17        2.0000           -0.4331883             -11.7877
        18        2.0000           -0.4164727             -11.3328
        19        2.0000           -0.4118336             -11.2066
        20        2.0000           -0.3976102             -10.8195
        21        2.0000           -0.3921385             -10.6706
        22        2.0000           -0.3905298             -10.6269
        23        1.4606           -0.3153672              -8.5816 (HOMO)
        24        0.5394           -0.3134746              -8.5301 (LUMO)
        25        0.0000           -0.3000684              -8.1653
        26                         -0.2175277              -5.9192
        27                         -0.2146527              -5.8410
        28                         -0.2044112              -5.5623
       ...                                ...                  ...
        46                          0.6097350              16.5917
      -------------------------------------------------------------
                  HL-Gap            0.0018926 Eh            0.0515 eV
             Fermi-level           -0.3144209 Eh           -8.5558 eV

 SCC (total)                   0 d,  0 h,  0 min,  0.015 sec
 SCC setup                      ...        0 min,  0.000 sec (  1.519%)
 Dispersion                     ...        0 min,  0.000 sec (  1.339%)
 classical contributions        ...        0 min,  0.000 sec (  0.473%)
 integral evaluation            ...        0 min,  0.001 sec (  4.408%)
 iterations                     ...        0 min,  0.012 sec ( 81.594%)
 molecular gradient             ...        0 min,  0.001 sec (  9.254%)
 printout                       ...        0 min,  0.000 sec (  0.807%)

         :::::::::::::::::::::::::::::::::::::::::::::::::::::
         ::                     SUMMARY                     ::
         :::::::::::::::::::::::::::::::::::::::::::::::::::::
         :: total energy             -23.938102031090 Eh    ::
         :: gradient norm              0.147623975528 Eh/a0 ::
         :: HOMO-LUMO gap              0.051499244574 eV    ::
         ::.................................................::
         :: SCC energy               -24.319287485675 Eh    ::
         :: -> isotropic ES            0.002904613873 Eh    ::
         :: -> anisotropic ES          0.008244244929 Eh    ::
         :: -> anisotropic XC          0.024549292799 Eh    ::
         :: -> dispersion             -0.013710542223 Eh    ::
         :: repulsion energy           0.381220364590 Eh    ::
         :: add. restraining           0.000000000000 Eh    ::
         :: total charge               0.000000000000 e     ::
         :::::::::::::::::::::::::::::::::::::::::::::::::::::

      ----------------------------------------------------------- 
     |                   =====================                   |
     |                        A N C O P T                        |
     |                   =====================                   |
     |               Approximate Normal Coordinate               |
     |                Rational Function Optimizer                |
      ----------------------------------------------------------- 

          ...................................................
          :                      SETUP                      :
          :.................................................:
          :   optimization level            normal          :
          :   max. optcycles                   200          :
          :   ANC micro-cycles                  20          :
          :   degrees of freedom                51          :
          :.................................................:
          :   RF solver                   davidson          :
          :   write xtbopt.log                true          :
          :   linear?                        false          :
          :   energy convergence         0.5000000E-05 Eh   :
          :   grad. convergence          0.1000000E-02 Eh/α :
          :   maximium RF displ.         1.0000000          :
          :   Hlow (freq-cutoff)         0.1000000E-01      :
          :   Hmax (freq-cutoff)         5.0000000          :
          :   S6 in model hess.         20.0000000          :
          ...................................................

generating ANC from model Hessian ...
Using Lindh-Hessian (1995)
 Shifting diagonal of input Hessian by   1.015579194579214E-002
 Lowest  eigenvalues of input Hessian
    0.010000    0.000000    0.000000    0.000000    0.000000    0.000000
    0.000000    0.010340    0.010944    0.011749    0.012729    0.012862
    0.014015    0.014608    0.015245    0.018542    0.020522    0.024468
 Highest eigenvalues
    1.380073    1.466112    1.658275    1.697406    1.733211    1.881091
 

........................................................................
.............................. CYCLE    1 ..............................
........................................................................
   1    -24.3192875 -0.243193E+02  0.724E-05    0.05       0.0  T
   2    -24.3192874  0.654662E-07  0.158E-03    0.05      14.6  T
   3    -24.3192875 -0.655973E-07  0.155E-05    0.05    1479.1  T
   4    -24.3192875 -0.272848E-11  0.133E-05    0.05    1731.2  T
     SCC iter.                  ...        0 min,  0.003 sec
     gradient                   ...        0 min,  0.001 sec
 * total energy  :   -23.9381020 Eh     change       -0.3397425E-09 Eh
   gradient norm :     0.1476234 Eh/α   predicted     0.0000000E+00 (-100.00%)
   displ. norm   :     0.6378579 α      lambda       -0.4833973E-01
   maximum displ.:     0.5353073 α      in ANC's #13, #24, #7, ...

........................................................................
.............................. CYCLE    2 ..............................
........................................................................
   1    -24.3944812 -0.243945E+02  0.104E+00    0.10       0.0  T
   2    -24.0460883  0.348393E+00  0.386E+00    1.03       1.0  T
   3    -24.1836608 -0.137572E+00  0.303E+00    0.14       1.0  T
   4    -24.3704322 -0.186771E+00  0.136E+00    0.02       1.0  T
   5    -24.3403492  0.300831E-01  0.166E+00    0.27       1.0  T
   6    -24.3547830 -0.144338E-01  0.150E+00    0.21       1.0  T
   7    -24.3901264 -0.353434E-01  0.103E+00    0.11       1.0  T
   8    -24.4174653 -0.273390E-01  0.259E-01    0.05       1.0  T
   9    -24.4181805 -0.715176E-03  0.190E-01    0.05       1.0  T
  10    -24.4161147  0.206578E-02  0.333E-01    0.06       1.0  T
  11    -24.4180968 -0.198206E-02  0.175E-01    0.03       1.0  T
  12    -24.4189082 -0.811439E-03  0.473E-02    0.04       1.0  T
  13    -24.4189628 -0.545898E-04  0.171E-02    0.04       1.3  T
  14    -24.4189707 -0.785988E-05  0.523E-03    0.04       4.4  T
  15    -24.4189706  0.911781E-07  0.485E-03    0.04       4.7  T
  16    -24.4189712 -0.618690E-06  0.754E-04    0.04      30.4  T
  17    -24.4189712 -0.124926E-07  0.283E-04    0.04      81.1  T
     SCC iter.                  ...        0 min,  0.010 sec
     gradient                   ...        0 min,  0.001 sec
 * total energy  :   -23.9813856 Eh     change       -0.4328360E-01 Eh
   gradient norm :     0.0790673 Eh/α   predicted    -0.3402680E-01 ( -21.39%)
   displ. norm   :     0.9234743 α      lambda       -0.5727509E-01
   maximum displ.:     0.8050615 α      in ANC's #13, #24, #18, ...

........................................................................
.............................. CYCLE    3 ..............................
........................................................................
   1    -24.4988470 -0.244988E+02  0.152E+00    0.08       0.0  T
   2    -24.1384993  0.360348E+00  0.387E+00    1.58       1.0  T
   3    -24.3383343 -0.199835E+00  0.264E+00    0.11       1.0  T
   4    -24.3945836 -0.562493E-01  0.232E+00    0.35       1.0  T
   5    -24.4029723 -0.838873E-02  0.209E+00    0.25       1.0  T
   6    -24.2965613  0.106411E+00  0.286E+00    0.14       1.0  T
   7    -24.5274264 -0.230865E+00  0.562E-01    0.05       1.0  T
   8    -24.5368803 -0.945396E-02  0.479E-02    0.02       1.0  T
   9    -24.5348341  0.204626E-02  0.263E-01    0.01       1.0  T
  10    -24.5344653  0.368727E-03  0.285E-01    0.04       1.0  T
  11    -24.5366723 -0.220692E-02  0.849E-02    0.02       1.0  T
  12    -24.5368663 -0.193994E-03  0.260E-02    0.02       1.0  T
  13    -24.5368854 -0.191093E-04  0.537E-03    0.02       4.3  T
  14    -24.5368859 -0.500170E-06  0.337E-03    0.02       6.8  T
  15    -24.5368862 -0.308435E-06  0.102E-03    0.02      22.6  T
  16    -24.5368862 -0.168671E-07  0.683E-04    0.02      33.6  T
  17    -24.5368862 -0.127883E-07  0.190E-04    0.02     120.7  T
     SCC iter.                  ...        0 min,  0.010 sec
     gradient                   ...        0 min,  0.001 sec
 * total energy  :   -24.0397270 Eh     change       -0.5834132E-01 Eh
   gradient norm :     0.1272688 Eh/α   predicted    -0.5305985E-01 (  -9.05%)
   displ. norm   :     0.9705956 α      lambda       -0.6265080E-01
   maximum displ.:     0.8138399 α      in ANC's #13, #24, #18, ...

........................................................................
.............................. CYCLE    4 ..............................
........................................................................
   1    -24.4865319 -0.244865E+02  0.258E+00    0.44       0.0  T
   2    -24.0149146  0.471617E+00  0.490E+00    0.56       1.0  T
   3    -24.2831745 -0.268260E+00  0.345E+00    0.32       1.0  T
   4    -24.4887711 -0.205597E+00  0.239E+00    0.41       1.0  T
   5    -24.5117216 -0.229505E-01  0.203E+00    0.21       1.0  T
   6    -24.2752584  0.236463E+00  0.348E+00    0.36       1.0  T
   7    -24.3670568 -0.917984E-01  0.299E+00    0.13       1.0  T
   8    -24.5954494 -0.228393E+00  0.119E+00    0.09       1.0  T
   9    -24.6327019 -0.372525E-01  0.469E-01    0.01       1.0  T
  10    -24.5696048  0.630971E-01  0.149E+00    0.11       1.0  T
  11    -24.6267618 -0.571569E-01  0.635E-01    0.05       1.0  T
  12    -24.6373310 -0.105692E-01  0.266E-01    0.02       1.0  T
  13    -24.6372579  0.731009E-04  0.268E-01    0.04       1.0  T
  14    -24.6391087 -0.185082E-02  0.117E-01    0.02       1.0  T
  15    -24.6394362 -0.327504E-03  0.552E-02    0.03       1.0  T
  16    -24.6394910 -0.548141E-04  0.366E-02    0.03       1.0  T
  17    -24.6395326 -0.415702E-04  0.461E-04    0.03      49.8  T
  18    -24.6395313  0.123100E-05  0.633E-03    0.03       3.6  T
  19    -24.6395325 -0.119859E-05  0.104E-03    0.03      22.1  T
  20    -24.6395326 -0.202204E-07  0.649E-04    0.03      35.3  T
  21    -24.6395326 -0.125866E-07  0.151E-04    0.03     152.3  T
     SCC iter.                  ...        0 min,  0.012 sec
     gradient                   ...        0 min,  0.001 sec
 * total energy  :   -24.0517130 Eh     change       -0.1198604E-01 Eh
   gradient norm :     0.2709989 Eh/α   predicted    -0.6083575E-01 ( 407.56%)
   displ. norm   :     0.3876838 α      lambda       -0.6458686E-01
   maximum displ.:     0.2223064 α      in ANC's #24, #13, #28, ...

........................................................................
.............................. CYCLE    5 ..............................
........................................................................
   1    -24.2946342 -0.242946E+02  0.332E+00    0.21       0.0  T
   2    -23.9308552  0.363779E+00  0.526E+00    1.17       1.0  T
   3    -24.3652221 -0.434367E+00  0.309E+00    2.03       1.0  T
   4    -24.4069995 -0.417774E-01  0.258E+00    0.86       1.0  T
   5    -24.2864676  0.120532E+00  0.333E+00    0.26       1.0  T
   6    -24.4621742 -0.175707E+00  0.215E+00    0.20       1.0  T
   7    -24.4493396  0.128346E-01  0.223E+00    0.25       1.0  T
   8    -24.5944590 -0.145119E+00  0.435E-01    0.04       1.0  T
   9    -24.5838395  0.106195E-01  0.740E-01    0.01       1.0  T
  10    -24.5229546  0.608849E-01  0.159E+00    0.11       1.0  T
  11    -24.5740551 -0.511005E-01  0.933E-01    0.01       1.0  T
  12    -24.5886796 -0.146246E-01  0.615E-01    0.05       1.0  T
  13    -24.6002431 -0.115635E-01  0.239E-02    0.02       1.0  T
  14    -24.6002177  0.254407E-04  0.376E-02    0.02       1.0  T
  15    -24.6001624  0.552602E-04  0.567E-02    0.02       1.0  T
  16    -24.6002186 -0.561460E-04  0.370E-02    0.02       1.0  T
  17    -24.6002597 -0.411545E-04  0.343E-03    0.02       6.7  T
  18    -24.6002596  0.703593E-07  0.375E-03    0.02       6.1  T
  19    -24.6002599 -0.286224E-06  0.216E-03    0.02      10.6  T
  20    -24.6002601 -0.135557E-06  0.472E-04    0.02      48.6  T
  21    -24.6002601 -0.350662E-08  0.328E-04    0.02      69.9  T
     SCC iter.                  ...        0 min,  0.012 sec
     gradient                   ...        0 min,  0.001 sec
 * total energy  :   -24.0739535 Eh     change       -0.2224053E-01 Eh
   gradient norm :     0.1434684 Eh/α   predicted    -0.3714710E-01 (  67.02%)
   displ. norm   :     0.2508568 α      lambda       -0.1189280E-01
   maximum displ.:     0.1007496 α      in ANC's #35, #23, #6, ...

........................................................................
.............................. CYCLE    6 ..............................
........................................................................
   1    -24.5128285 -0.245128E+02  0.175E+00    0.11       0.0  T
   2    -24.0775832  0.435245E+00  0.453E+00    1.40       1.0  T
   3    -24.2570326 -0.179449E+00  0.351E+00    0.59       1.0  T
   4    -24.4504971 -0.193464E+00  0.220E+00    0.07       1.0  T
   5    -24.4101028  0.403943E-01  0.257E+00    0.65       1.0  T
   6    -24.4230509 -0.129481E-01  0.242E+00    0.45       1.0  T
   7    -24.4978099 -0.747590E-01  0.178E+00    0.12       1.0  T
   8    -24.5779660 -0.801561E-01  0.748E-01    0.05       1.0  T
   9    -24.5520075  0.259585E-01  0.119E+00    0.08       1.0  T
  10    -24.5895664 -0.375589E-01  0.433E-01    0.04       1.0  T
  11    -24.5948388 -0.527243E-02  0.122E-01    0.03       1.0  T
  12    -24.5952167 -0.377856E-03  0.504E-02    0.02       1.0  T
  13    -24.5952732 -0.564710E-04  0.261E-02    0.02       1.0  T
  14    -24.5952860 -0.128396E-04  0.159E-02    0.02       1.4  T
  15    -24.5952845  0.148258E-05  0.174E-02    0.02       1.3  T
  16    -24.5952937 -0.914922E-05  0.251E-04    0.02      91.3  T
  17    -24.5952936  0.422638E-07  0.121E-03    0.02      19.0  T
  18    -24.5952936 -0.123045E-07  0.102E-03    0.02      22.4  T
  19    -24.5952937 -0.296034E-07  0.271E-04    0.02      84.8  T
  20    -24.5952937 -0.207545E-08  0.681E-05    0.02     336.7  T
     SCC iter.                  ...        0 min,  0.012 sec
     gradient                   ...        0 min,  0.001 sec
 * total energy  :   -24.0802150 Eh     change       -0.6261515E-02 Eh
   gradient norm :     0.1126398 Eh/α   predicted    -0.6320606E-02 (   0.94%)
   displ. norm   :     0.5700245 α      lambda       -0.2094135E-01
   maximum displ.:     0.4503143 α      in ANC's #13, #6, #7, ...

........................................................................
.............................. CYCLE    7 ..............................
........................................................................
   1    -24.5050573 -0.245051E+02  0.182E+00    0.12       0.0  T
   2    -24.0540635  0.450994E+00  0.469E+00    0.91       1.0  T
   3    -24.2442171 -0.190154E+00  0.361E+00    0.65       1.0  T
   4    -24.3585121 -0.114295E+00  0.286E+00    0.11       1.0  T
   5    -24.4277140 -0.692019E-01  0.244E+00    0.43       1.0  T
   6    -24.4674981 -0.397841E-01  0.207E+00    0.17       1.0  T
   7    -24.4475956  0.199026E-01  0.228E+00    0.07       1.0  T
   8    -24.5493347 -0.101739E+00  0.129E+00    0.08       1.0  T
   9    -24.6002538 -0.509191E-01  0.841E-02    0.03       1.0  T
  10    -24.5802451  0.200087E-01  0.815E-01    0.06       1.0  T
  11    -24.5959781 -0.157330E-01  0.384E-01    0.04       1.0  T
  12    -24.6002396 -0.426146E-02  0.871E-02    0.03       1.0  T
  13    -24.6004507 -0.211123E-03  0.244E-02    0.02       1.0  T
  14    -24.6004646 -0.138344E-04  0.117E-02    0.02       2.0  T
  15    -24.6004687 -0.413896E-05  0.255E-04    0.02      89.8  T
  16    -24.6004685  0.158535E-06  0.229E-03    0.02      10.0  T
  17    -24.6004687 -0.159393E-06  0.160E-04    0.02     143.8  T
  18    -24.6004687 -0.739082E-09  0.119E-05    0.02    1926.4  T
     SCC iter.                  ...        0 min,  0.011 sec
     gradient                   ...        0 min,  0.001 sec
 * total energy  :   -24.0932016 Eh     change       -0.1298652E-01 Eh
   gradient norm :     0.0810182 Eh/α   predicted    -0.1387303E-01 (   6.83%)
   displ. norm   :     0.5264397 α      lambda       -0.1134576E-01
   maximum displ.:     0.4022703 α      in ANC's #7, #6, #10, ...

........................................................................
.............................. CYCLE    8 ..............................
........................................................................
   1    -24.3671906 -0.243672E+02  0.294E+00    0.12       0.0  T
   2    -24.0102286  0.356962E+00  0.508E+00    1.50       1.0  T
   3    -24.3725460 -0.362317E+00  0.315E+00    1.98       1.0  T
   4    -24.4001171 -0.275712E-01  0.281E+00    0.99       1.0  T
   5    -24.4364256 -0.363085E-01  0.246E+00    0.29       1.0  T
   6    -24.4554264 -0.190007E-01  0.235E+00    0.08       1.0  T
   7    -24.5697111 -0.114285E+00  0.123E+00    0.07       1.0  T
   8    -24.5987428 -0.290317E-01  0.733E-01    0.05       1.0  T
   9    -24.6135443 -0.148014E-01  0.214E-01    0.01       1.0  T
  10    -24.6036705  0.987376E-02  0.613E-01    0.04       1.0  T
  11    -24.6145091 -0.108386E-01  0.114E-01    0.01       1.0  T
  12    -24.6145793 -0.701988E-04  0.103E-01    0.02       1.0  T
  13    -24.6148806 -0.301298E-03  0.231E-02    0.02       1.0  T
  14    -24.6148934 -0.128223E-04  0.994E-03    0.02       2.3  T
  15    -24.6148953 -0.184884E-05  0.613E-03    0.02       3.7  T
  16    -24.6148959 -0.628019E-06  0.404E-03    0.02       5.7  T
  17    -24.6148964 -0.455689E-06  0.956E-04    0.02      24.0  T
  18    -24.6148964 -0.261632E-07  0.176E-04    0.02     130.0  T
     SCC iter.                  ...        0 min,  0.011 sec
     gradient                   ...        0 min,  0.001 sec
 * total energy  :   -24.1017081 Eh     change       -0.8506550E-02 Eh
   gradient norm :     0.0555906 Eh/α   predicted    -0.7245064E-02 ( -14.83%)
   displ. norm   :     0.5541917 α      lambda       -0.9402680E-02
   maximum displ.:     0.3725823 α      in ANC's #7, #6, #23, ...

........................................................................
.............................. CYCLE    9 ..............................
........................................................................
   1    -24.4589040 -0.244589E+02  0.229E+00    0.07       0.0  T
   2    -24.1146845  0.344220E+00  0.448E+00    2.55       1.0  T
   3    -24.3785901 -0.263906E+00  0.292E+00    1.32       1.0  T
   4    -24.3996496 -0.210594E-01  0.265E+00    0.52       1.0  T
   5    -24.4503374 -0.506879E-01  0.233E+00    0.07       1.0  T
   6    -24.4348763  0.154611E-01  0.238E+00    0.20       1.0  T
   7    -24.4661407 -0.312644E-01  0.214E+00    0.14       1.0  T
   8    -24.5717497 -0.105609E+00  0.103E+00    0.02       1.0  T
   9    -24.5416979  0.300518E-01  0.143E+00    0.08       1.0  T
  10    -24.6023173 -0.606194E-01  0.741E-02    0.02       1.0  T
  11    -24.6004223  0.189505E-02  0.264E-01    0.03       1.0  T
  12    -24.6024776 -0.205534E-02  0.119E-02    0.02       1.9  T
  13    -24.6024500  0.276589E-04  0.330E-02    0.02       1.0  T
  14    -24.6024819 -0.319078E-04  0.794E-04    0.02      28.9  T
  15    -24.6024817  0.179893E-06  0.262E-03    0.02       8.8  T
  16    -24.6024806  0.110748E-05  0.666E-03    0.02       3.4  T
  17    -24.6024819 -0.127891E-05  0.961E-04    0.02      23.9  T
  18    -24.6024819 -0.260761E-07  0.183E-04    0.02     125.4  T
  19    -24.6024819 -0.978051E-09  0.648E-06    0.02    3541.3  T
     SCC iter.                  ...        0 min,  0.011 sec
     gradient                   ...        0 min,  0.001 sec
 * total energy  :   -24.1079939 Eh     change       -0.6285795E-02 Eh
   gradient norm :     0.0270798 Eh/α   predicted    -0.6145295E-02 (  -2.24%)
   displ. norm   :     0.5273301 α      lambda       -0.4513648E-02
   maximum displ.:     0.3434635 α      in ANC's #6, #7, #4, ...

........................................................................
.............................. CYCLE   10 ..............................
........................................................................
   1    -24.5560691 -0.245561E+02  0.123E+00    0.03       0.0  T
   2    -24.2649328  0.291136E+00  0.357E+00    2.23       1.0  T
   3    -24.3981769 -0.133244E+00  0.262E+00    0.49       1.0  T
   4    -24.4770210 -0.788441E-01  0.199E+00    0.12       1.0  T
   5    -24.4003681  0.766529E-01  0.264E+00    0.10       1.0  T
   6    -24.5396162 -0.139248E+00  0.138E+00    0.08       1.0  T
   7    -24.5903710 -0.507549E-01  0.476E-01    0.03       1.0  T
   8    -24.5888842  0.148679E-02  0.525E-01    0.04       1.0  T
   9    -24.5963428 -0.745855E-02  0.158E-01    0.02       1.0  T
  10    -24.5970616 -0.718862E-03  0.296E-02    0.02       1.0  T
  11    -24.5970460  0.156903E-04  0.374E-02    0.02       1.0  T
  12    -24.5970868 -0.408270E-04  0.425E-03    0.02       5.4  T
  13    -24.5970872 -0.431229E-06  0.189E-03    0.02      12.2  T
  14    -24.5970873 -0.103142E-06  0.121E-04    0.02     189.2  T
  15    -24.5970873  0.224110E-08  0.301E-04    0.02      76.3  T
     SCC iter.                  ...        0 min,  0.009 sec
     gradient                   ...        0 min,  0.001 sec
 * total energy  :   -24.1112565 Eh     change       -0.3262618E-02 Eh
   gradient norm :     0.0166167 Eh/α   predicted    -0.2884395E-02 ( -11.59%)
   displ. norm   :     0.5405019 α      lambda       -0.2812268E-02
   maximum displ.:     0.4441162 α      in ANC's #6, #7, #4, ...

........................................................................
.............................. CYCLE   11 ..............................
........................................................................
   1    -24.5757037 -0.245757E+02  0.840E-01    0.01       0.0  T
   2    -24.3125699  0.263134E+00  0.323E+00    1.51       1.0  T
   3    -24.4067876 -0.942177E-01  0.251E+00    0.26       1.0  T
   4    -24.5929213 -0.186134E+00  0.240E-01    0.02       1.0  T
   5    -24.4340383  0.158883E+00  0.236E+00    0.08       1.0  T
   6    -24.5314352 -0.973970E-01  0.145E+00    0.08       1.0  T
   7    -24.5878509 -0.564157E-01  0.469E-01    0.00       1.0  T
   8    -24.5908564 -0.300544E-02  0.344E-01    0.03       1.0  T
   9    -24.5934443 -0.258797E-02  0.178E-01    0.02       1.0  T
  10    -24.5942325 -0.788127E-03  0.728E-02    0.02       1.0  T
  11    -24.5943547 -0.122237E-03  0.342E-02    0.02       1.0  T
  12    -24.5943887 -0.340030E-04  0.526E-03    0.02       4.4  T
  13    -24.5943895 -0.790812E-06  0.933E-04    0.02      24.6  T
  14    -24.5943895 -0.250039E-07  0.107E-04    0.02     215.1  T
     SCC iter.                  ...        0 min,  0.008 sec
     gradient                   ...        0 min,  0.001 sec
 * total energy  :   -24.1132568 Eh     change       -0.2000226E-02 Eh
   gradient norm :     0.0157690 Eh/α   predicted    -0.1816928E-02 (  -9.16%)
   displ. norm   :     0.4930679 α      lambda       -0.1950731E-02
   maximum displ.:     0.3746062 α      in ANC's #6, #7, #4, ...

........................................................................
.............................. CYCLE   12 ..............................
........................................................................
   1    -24.4963323 -0.244963E+02  0.185E+00    0.05       0.0  T
   2    -24.1652882  0.331044E+00  0.415E+00    3.03       1.0  T
   3    -24.3729381 -0.207650E+00  0.284E+00    1.01       1.0  T
   4    -24.3896820 -0.167439E-01  0.262E+00    0.37       1.0  T
   5    -24.5774466 -0.187765E+00  0.716E-01    0.04       1.0  T
   6    -24.5603508  0.170958E-01  0.106E+00    0.02       1.0  T
   7    -24.5587554  0.159539E-02  0.107E+00    0.06       1.0  T
   8    -24.5788700 -0.201146E-01  0.694E-01    0.01       1.0  T
   9    -24.5919948 -0.131249E-01  0.191E-01    0.02       1.0  T
  10    -24.5927838 -0.788933E-03  0.101E-01    0.02       1.0  T
  11    -24.5930894 -0.305610E-03  0.142E-03    0.02      16.1  T
  12    -24.5930888  0.555567E-06  0.457E-03    0.02       5.0  T
  13    -24.5930834  0.540802E-05  0.142E-02    0.02       1.6  T
  14    -24.5930893 -0.589795E-05  0.194E-03    0.02      11.8  T
  15    -24.5930893 -0.370245E-07  0.159E-03    0.02      14.4  T
  16    -24.5930894 -0.546597E-07  0.835E-04    0.02      27.5  T
  17    -24.5930894 -0.206276E-07  0.725E-05    0.02     316.5  T
     SCC iter.                  ...        0 min,  0.010 sec
     gradient                   ...        0 min,  0.001 sec
 * total energy  :   -24.1143846 Eh     change       -0.1127854E-02 Eh
   gradient norm :     0.0144392 Eh/α   predicted    -0.1212494E-02 (   7.50%)
   displ. norm   :     0.3797316 α      lambda       -0.1115539E-02
   maximum displ.:     0.3438743 α      in ANC's #6, #4, #7, ...

........................................................................
.............................. CYCLE   13 ..............................
........................................................................
   1    -24.5729778 -0.245730E+02  0.811E-01    0.01       0.0  T
   2    -24.3057663  0.267211E+00  0.324E+00    1.52       1.0  T
   3    -24.3979261 -0.921598E-01  0.254E+00    0.28       1.0  T
   4    -24.5578456 -0.159920E+00  0.106E+00    0.06       1.0  T
   5    -24.3882993  0.169546E+00  0.264E+00    0.10       1.0  T
   6    -24.5374019 -0.149103E+00  0.134E+00    0.07       1.0  T
   7    -24.5829061 -0.455042E-01  0.549E-01    0.00       1.0  T
   8    -24.5911439 -0.823780E-02  0.155E-01    0.02       1.0  T
   9    -24.5909018  0.242091E-03  0.178E-01    0.02       1.0  T
  10    -24.5916524 -0.750575E-03  0.835E-02    0.02       1.0  T
  11    -24.5918534 -0.201063E-03  0.183E-02    0.02       1.3  T
  12    -24.5918585 -0.510275E-05  0.129E-02    0.02       1.8  T
  13    -24.5918636 -0.503971E-05  0.858E-04    0.02      26.7  T
  14    -24.5918636 -0.142033E-07  0.510E-04    0.02      45.0  T
  15    -24.5918636 -0.748080E-08  0.704E-05    0.02     325.9  T
     SCC iter.                  ...        0 min,  0.009 sec
     gradient                   ...        0 min,  0.001 sec
 * total energy  :   -24.1151017 Eh     change       -0.7170856E-03 Eh
   gradient norm :     0.0116582 Eh/α   predicted    -0.6382009E-03 ( -11.00%)
   displ. norm   :     0.2557539 α      lambda       -0.6866111E-03
   maximum displ.:     0.2247984 α      in ANC's #6, #4, #20, ...

........................................................................
.............................. CYCLE   14 ..............................
........................................................................
   1    -24.5910157 -0.245910E+02  0.248E-01    0.01       0.0  T
   2    -24.3803940  0.210622E+00  0.266E+00    0.43       1.0  T
   3    -24.5871863 -0.206792E+00  0.428E-01    0.03       1.0  T
   4    -24.5750483  0.121380E-01  0.763E-01    0.01       1.0  T
   5    -24.5600018  0.150465E-01  0.103E+00    0.06       1.0  T
   6    -24.5924955 -0.324937E-01  0.198E-02    0.02       1.2  T
   7    -24.5924983 -0.285143E-05  0.165E-02    0.02       1.4  T
   8    -24.5924845  0.138776E-04  0.268E-02    0.02       1.0  T
   9    -24.5925056 -0.210972E-04  0.414E-03    0.02       5.5  T
  10    -24.5925053  0.251611E-06  0.515E-03    0.02       4.5  T
  11    -24.5925055 -0.233316E-06  0.428E-03    0.02       5.4  T
  12    -24.5925060 -0.503683E-06  0.129E-03    0.02      17.8  T
  13    -24.5925061 -0.503616E-07  0.412E-05    0.02     556.9  T
  14    -24.5925061  0.282875E-08  0.307E-04    0.02      74.6  T
     SCC iter.                  ...        0 min,  0.008 sec
     gradient                   ...        0 min,  0.001 sec
 * total energy  :   -24.1155963 Eh     change       -0.4946558E-03 Eh
   gradient norm :     0.0084511 Eh/α   predicted    -0.3657703E-03 ( -26.06%)
   displ. norm   :     0.4095206 α      lambda       -0.8906986E-03
   maximum displ.:     0.3226517 α      in ANC's #6, #4, #23, ...

........................................................................
.............................. CYCLE   15 ..............................
........................................................................
   1    -24.5761646 -0.245762E+02  0.774E-01    0.01       0.0  T
   2    -24.3167065  0.259458E+00  0.315E+00    1.43       1.0  T
   3    -24.4127434 -0.960369E-01  0.242E+00    0.25       1.0  T
   4    -24.5609608 -0.148217E+00  0.102E+00    0.06       1.0  T
   5    -24.5092679  0.516930E-01  0.167E+00    0.05       1.0  T
   6    -24.5556087 -0.463409E-01  0.110E+00    0.06       1.0  T
   7    -24.5932874 -0.376787E-01  0.593E-02    0.02       1.0  T
   8    -24.5933421 -0.547119E-04  0.403E-02    0.02       1.0  T
   9    -24.5933356  0.645896E-05  0.430E-02    0.02       1.0  T
  10    -24.5933920 -0.563810E-04  0.447E-03    0.02       5.1  T
  11    -24.5933911  0.869571E-06  0.695E-03    0.02       3.3  T
  12    -24.5933922 -0.109635E-05  0.349E-03    0.02       6.6  T
  13    -24.5933925 -0.291233E-06  0.168E-03    0.02      13.7  T
  14    -24.5933926 -0.664965E-07  0.786E-04    0.02      29.2  T
  15    -24.5933926 -0.184792E-07  0.120E-04    0.02     191.9  T
     SCC iter.                  ...        0 min,  0.009 sec
     gradient                   ...        0 min,  0.001 sec
 * total energy  :   -24.1162754 Eh     change       -0.6790501E-03 Eh
   gradient norm :     0.0071527 Eh/α   predicted    -0.5200402E-03 ( -23.42%)
   displ. norm   :     0.5185948 α      lambda       -0.9174898E-03
   maximum displ.:     0.3780309 α      in ANC's #6, #4, #7, ...

........................................................................
.............................. CYCLE   16 ..............................
........................................................................
   1    -24.5860593 -0.245861E+02  0.390E-01    0.01       0.0  T
   2    -24.3813212  0.204738E+00  0.263E+00    0.63       1.0  T
   3    -24.5840400 -0.202719E+00  0.428E-01    0.04       1.0  T
   4    -24.5159386  0.681015E-01  0.156E+00    0.04       1.0  T
   5    -24.5076354  0.830320E-02  0.162E+00    0.10       1.0  T
   6    -24.5801479 -0.725125E-01  0.550E-01    0.04       1.0  T
   7    -24.5891759 -0.902802E-02  0.104E-01    0.02       1.0  T
   8    -24.5883103  0.865559E-03  0.197E-01    0.03       1.0  T
   9    -24.5894619 -0.115158E-02  0.387E-02    0.02       1.0  T
  10    -24.5894988 -0.369246E-04  0.171E-02    0.02       1.3  T
  11    -24.5895078 -0.893745E-05  0.170E-03    0.02      13.5  T
  12    -24.5895078 -0.655018E-07  0.857E-04    0.02      26.8  T
  13    -24.5895079 -0.152242E-07  0.464E-04    0.02      49.4  T
     SCC iter.                  ...        0 min,  0.008 sec
     gradient                   ...        0 min,  0.001 sec
 * total energy  :   -24.1168699 Eh     change       -0.5945451E-03 Eh
   gradient norm :     0.0107451 Eh/α   predicted    -0.5821261E-03 (  -2.09%)
   displ. norm   :     0.3201458 α      lambda       -0.5680501E-03
   maximum displ.:     0.2228150 α      in ANC's #4, #7, #6, ...

........................................................................
.............................. CYCLE   17 ..............................
........................................................................
   1    -24.5816159 -0.245816E+02  0.497E-01    0.04       0.0  T
   2    -24.2333925  0.348223E+00  0.350E+00    0.52       1.0  T
   3    -24.4694298 -0.236037E+00  0.199E+00    0.06       1.0  T
   4    -24.5825475 -0.113118E+00  0.469E-01    0.00       1.0  T
   5    -24.5234067  0.591409E-01  0.145E+00    0.09       1.0  T
   6    -24.5864018 -0.629951E-01  0.296E-01    0.03       1.0  T
   7    -24.5887069 -0.230519E-02  0.117E-01    0.02       1.0  T
   8    -24.5890232 -0.316267E-03  0.571E-02    0.02       1.0  T
   9    -24.5891231 -0.999091E-04  0.574E-03    0.02       4.0  T
  10    -24.5891224  0.671572E-06  0.715E-03    0.02       3.2  T
  11    -24.5891231 -0.644878E-06  0.541E-03    0.02       4.2  T
  12    -24.5891221  0.957538E-06  0.773E-03    0.02       3.0  T
  13    -24.5891239 -0.179750E-05  0.123E-03    0.02      18.6  T
  14    -24.5891240 -0.412698E-07  0.465E-04    0.02      49.3  T
  15    -24.5891240 -0.661630E-08  0.606E-05    0.02     378.7  T
     SCC iter.                  ...        0 min,  0.009 sec
     gradient                   ...        0 min,  0.001 sec
 * total energy  :   -24.1173443 Eh     change       -0.4743920E-03 Eh
   gradient norm :     0.0110744 Eh/α   predicted    -0.3131411E-03 ( -33.99%)
   displ. norm   :     0.6269444 α      lambda       -0.1435567E-02
   maximum displ.:     0.4579971 α      in ANC's #7, #4, #23, ...

........................................................................
.............................. CYCLE   18 ..............................
........................................................................
   1    -24.4918684 -0.244919E+02  0.183E+00    0.22       0.0  T
   2    -24.0606479  0.431221E+00  0.450E+00    0.74       1.0  T
   3    -24.2728147 -0.212167E+00  0.335E+00    0.53       1.0  T
   4    -24.3806153 -0.107801E+00  0.262E+00    0.11       1.0  T
   5    -24.5258823 -0.145267E+00  0.146E+00    0.13       1.0  T
   6    -24.5918668 -0.659846E-01  0.806E-02    0.03       1.0  T
   7    -24.5810466  0.108202E-01  0.589E-01    0.00       1.0  T
   8    -24.5876103 -0.656368E-02  0.370E-01    0.01       1.0  T
   9    -24.5909717 -0.336141E-02  0.175E-01    0.04       1.0  T
  10    -24.5918482 -0.876499E-03  0.524E-02    0.03       1.0  T
  11    -24.5919328 -0.846557E-04  0.409E-03    0.03       5.6  T
  12    -24.5919307  0.215827E-05  0.924E-03    0.03       2.5  T
  13    -24.5919322 -0.148205E-05  0.624E-03    0.03       3.7  T
  14    -24.5919333 -0.117197E-05  0.108E-03    0.03      21.3  T
  15    -24.5919334 -0.350752E-07  0.100E-04    0.03     228.9  T
  16    -24.5919334 -0.577991E-10  0.846E-05    0.03     271.2  T
     SCC iter.                  ...        0 min,  0.010 sec
     gradient                   ...        0 min,  0.001 sec
 * total energy  :   -24.1187801 Eh     change       -0.1435765E-02 Eh
   gradient norm :     0.0203380 Eh/α   predicted    -0.9999181E-03 ( -30.36%)
   displ. norm   :     0.5711524 α      lambda       -0.1817944E-02
   maximum displ.:     0.4375116 α      in ANC's #7, #4, #6, ...

........................................................................
.............................. CYCLE   19 ..............................
........................................................................
   1    -24.5282487 -0.245282E+02  0.158E+00    0.38       0.0  T
   2    -24.0777178  0.450531E+00  0.427E+00    0.89       1.0  T
   3    -24.3583479 -0.280630E+00  0.280E+00    0.12       1.0  T
   4    -24.5401708 -0.181823E+00  0.137E+00    0.23       1.0  T
   5    -24.5740780 -0.339072E-01  0.816E-01    0.11       1.0  T
   6    -24.5893853 -0.153073E-01  0.299E-01    0.03       1.0  T
   7    -24.5894143 -0.289814E-04  0.306E-01    0.07       1.0  T
   8    -24.5896894 -0.275127E-03  0.288E-01    0.03       1.0  T
   9    -24.5907589 -0.106944E-02  0.221E-01    0.06       1.0  T
  10    -24.5922560 -0.149715E-02  0.681E-03    0.05       3.4  T
  11    -24.5922567 -0.664352E-06  0.441E-03    0.05       5.2  T
  12    -24.5922565  0.176732E-06  0.523E-03    0.05       4.4  T
  13    -24.5922573 -0.801328E-06  0.442E-04    0.05      51.9  T
  14    -24.5922572  0.987143E-07  0.185E-03    0.05      12.4  T
  15    -24.5922573 -0.986986E-07  0.330E-04    0.05      69.5  T
     SCC iter.                  ...        0 min,  0.009 sec
     gradient                   ...        0 min,  0.001 sec
 * total energy  :   -24.1210799 Eh     change       -0.2299813E-02 Eh
   gradient norm :     0.0365899 Eh/α   predicted    -0.1205497E-02 ( -47.58%)
   displ. norm   :     0.5510375 α      lambda       -0.3842309E-02
   maximum displ.:     0.3932374 α      in ANC's #7, #6, #4, ...

........................................................................
.............................. CYCLE   20 ..............................
........................................................................
   1    -24.5709635 -0.245710E+02  0.122E+00    0.60       0.0  T
   2    -24.0992770  0.471687E+00  0.406E+00    0.79       1.0  T
   3    -24.5787419 -0.479465E+00  0.982E-01    0.38       1.0  T
   4    -24.5928607 -0.141188E-01  0.573E-01    0.16       1.0  T
   5    -24.5259448  0.669159E-01  0.161E+00    0.01       1.0  T
   6    -24.5950759 -0.691311E-01  0.405E-01    0.14       1.0  T
   7    -24.5968249 -0.174898E-02  0.326E-01    0.13       1.0  T
   8    -24.5984790 -0.165412E-02  0.212E-01    0.11       1.0  T
   9    -24.5997079 -0.122888E-02  0.123E-02    0.09       1.9  T
  10    -24.5997065  0.135599E-05  0.137E-02    0.09       1.7  T
  11    -24.5997098 -0.328683E-05  0.761E-03    0.09       3.0  T
  12    -24.5997113 -0.150063E-05  0.234E-03    0.09       9.8  T
  13    -24.5997115 -0.143908E-06  0.521E-04    0.09      44.0  T
  14    -24.5997114  0.139406E-07  0.870E-04    0.09      26.4  T
     SCC iter.                  ...        0 min,  0.008 sec
     gradient                   ...        0 min,  0.001 sec
 * total energy  :   -24.1261641 Eh     change       -0.5084201E-02 Eh
   gradient norm :     0.0608329 Eh/α   predicted    -0.2504514E-02 ( -50.74%)
   displ. norm   :     0.6348272 α      lambda       -0.8506652E-02
   maximum displ.:     0.4899805 α      in ANC's #7, #6, #4, ...
 * RMSD in coord.:     1.1361951 α      energy gain  -0.1880621E+00 Eh

generating ANC from model Hessian ...
Using Lindh-Hessian (1995)
 Shifting diagonal of input Hessian by   9.550146874505259E-003
 Lowest  eigenvalues of input Hessian
    0.000000    0.000000    0.000000    0.000000    0.000000    0.000000
    0.010000    0.010477    0.011944    0.013226    0.015823    0.020505
    0.021571    0.025461    0.034270    0.034771    0.037848    0.041748
 Highest eigenvalues
    1.659151    1.784996    1.853973    1.873500    2.044118    2.082022
 

........................................................................
.............................. CYCLE   21 ..............................
........................................................................
   1    -24.6073846 -0.246074E+02  0.870E-01    0.99       0.0  T
   2    -24.6097729 -0.238831E-02  0.711E-01    0.34       1.0  T
   3    -24.6146296 -0.485665E-02  0.370E-01    0.61       1.0  T
   4    -24.6147000 -0.704334E-04  0.122E-01    0.53       1.0  T
   5    -24.6148790 -0.179052E-03  0.357E-02    0.53       1.0  T
   6    -24.6148871 -0.809084E-05  0.152E-02    0.54       1.5  T
   7    -24.6148877 -0.585036E-06  0.602E-03    0.54       3.8  T
   8    -24.6148881 -0.366303E-06  0.181E-03    0.54      12.7  T
   9    -24.6148881  0.839080E-10  0.111E-03    0.54      20.7  T
  10    -24.6148881 -0.115978E-07  0.287E-04    0.54      80.1  T
  11    -24.6148881 -0.810950E-09  0.131E-04    0.54     174.6  T
     SCC iter.                  ...        0 min,  0.007 sec
     gradient                   ...        0 min,  0.001 sec
 * total energy  :   -24.1322338 Eh     change       -0.6069675E-02 Eh
   gradient norm :     0.0741973 Eh/α   predicted     0.0000000E+00 (-100.00%)
   displ. norm   :     0.2228869 α      lambda       -0.7462076E-02
   maximum displ.:     0.1275452 α      in ANC's #9, #3, #12, ...

........................................................................
.............................. CYCLE   22 ..............................
........................................................................
   1    -24.6178301 -0.246178E+02  0.287E-01    0.63       0.0  T
   2    -24.6178946 -0.645290E-04  0.159E-01    0.65       1.0  T
   3    -24.6178442  0.504064E-04  0.106E-01    0.66       1.0  T
   4    -24.6179375 -0.932982E-04  0.170E-02    0.65       1.4  T
   5    -24.6179418 -0.425371E-05  0.614E-03    0.65       3.7  T
   6    -24.6179420 -0.232372E-06  0.294E-03    0.65       7.8  T
   7    -24.6179420 -0.228929E-07  0.131E-03    0.65      17.5  T
   8    -24.6179421 -0.174293E-07  0.401E-04    0.65      57.2  T
   9    -24.6179421 -0.296826E-09  0.204E-04    0.65     112.6  T
     SCC iter.                  ...        0 min,  0.006 sec
     gradient                   ...        0 min,  0.001 sec
 * total energy  :   -24.1378767 Eh     change       -0.5642920E-02 Eh
   gradient norm :     0.0406805 Eh/α   predicted    -0.3917493E-02 ( -30.58%)
   displ. norm   :     0.3068989 α      lambda       -0.5021579E-02
   maximum displ.:     0.1889650 α      in ANC's #3, #9, #6, ...

........................................................................
.............................. CYCLE   23 ..............................
........................................................................
   1    -24.6201493 -0.246201E+02  0.320E-01    0.77       0.0  T
   2    -24.6202670 -0.117779E-03  0.173E-01    0.78       1.0  T
   3    -24.6202435  0.235215E-04  0.121E-01    0.80       1.0  T
   4    -24.6203490 -0.105522E-03  0.202E-02    0.79       1.1  T
   5    -24.6203552 -0.621054E-05  0.648E-03    0.79       3.5  T
   6    -24.6203555 -0.255256E-06  0.331E-03    0.79       6.9  T
   7    -24.6203555 -0.364816E-07  0.133E-03    0.79      17.2  T
   8    -24.6203556 -0.189978E-07  0.416E-04    0.79      55.1  T
   9    -24.6203556 -0.323578E-09  0.174E-04    0.79     131.9  T
     SCC iter.                  ...        0 min,  0.006 sec
     gradient                   ...        0 min,  0.001 sec
 * total energy  :   -24.1408761 Eh     change       -0.2999425E-02 Eh
   gradient norm :     0.0161543 Eh/α   predicted    -0.2747940E-02 (  -8.38%)
   displ. norm   :     0.1877601 α      lambda       -0.9605082E-03
   maximum displ.:     0.1556212 α      in ANC's #3, #6, #9, ...

........................................................................
.............................. CYCLE   24 ..............................
........................................................................
   1    -24.6208020 -0.246208E+02  0.104E-01    0.83       0.0  T
   2    -24.6208129 -0.109413E-04  0.568E-02    0.82       1.0  T
   3    -24.6208088  0.410453E-05  0.381E-02    0.83       1.0  T
   4    -24.6208209 -0.121308E-04  0.498E-03    0.83       4.6  T
   5    -24.6208214 -0.460782E-06  0.145E-03    0.83      15.8  T
   6    -24.6208214 -0.784733E-08  0.882E-04    0.83      26.0  T
   7    -24.6208214 -0.269854E-08  0.372E-04    0.83      61.7  T
     SCC iter.                  ...        0 min,  0.004 sec
     gradient                   ...        0 min,  0.001 sec
 * total energy  :   -24.1416220 Eh     change       -0.7458893E-03 Eh
   gradient norm :     0.0135308 Eh/α   predicted    -0.4971890E-03 ( -33.34%)
   displ. norm   :     0.2959512 α      lambda       -0.1071602E-02
   maximum displ.:     0.2624701 α      in ANC's #3, #6, #9, ...

........................................................................
.............................. CYCLE   25 ..............................
........................................................................
   1    -24.6217643 -0.246218E+02  0.117E-01    0.87       0.0  T
   2    -24.6217746 -0.103319E-04  0.665E-02    0.86       1.0  T
   3    -24.6217652  0.941547E-05  0.410E-02    0.88       1.0  T
   4    -24.6217829 -0.176958E-04  0.423E-03    0.87       5.4  T
   5    -24.6217832 -0.332454E-06  0.182E-03    0.87      12.6  T
   6    -24.6217832 -0.112663E-07  0.106E-03    0.87      21.7  T
   7    -24.6217832 -0.331659E-08  0.403E-04    0.87      56.9  T
   8    -24.6217832 -0.156647E-08  0.114E-04    0.87     201.9  T
     SCC iter.                  ...        0 min,  0.005 sec
     gradient                   ...        0 min,  0.001 sec
 * total energy  :   -24.1423272 Eh     change       -0.7051595E-03 Eh
   gradient norm :     0.0086032 Eh/α   predicted    -0.5827311E-03 ( -17.36%)
   displ. norm   :     0.1831657 α      lambda       -0.3042272E-03
   maximum displ.:     0.1719006 α      in ANC's #3, #9, #6, ...

........................................................................
.............................. CYCLE   26 ..............................
........................................................................
   1    -24.6230875 -0.246231E+02  0.554E-02    0.89       0.0  T
   2    -24.6230887 -0.126701E-05  0.333E-02    0.89       1.0  T
   3    -24.6230848  0.390951E-05  0.180E-02    0.89       1.3  T
   4    -24.6230899 -0.506225E-05  0.232E-03    0.89       9.9  T
   5    -24.6230899 -0.587239E-07  0.121E-03    0.89      18.9  T
   6    -24.6230899 -0.639720E-08  0.500E-04    0.89      45.9  T
   7    -24.6230900 -0.112581E-08  0.150E-04    0.89     153.1  T
     SCC iter.                  ...        0 min,  0.004 sec
     gradient                   ...        0 min,  0.001 sec
 * total energy  :   -24.1425478 Eh     change       -0.2206451E-03 Eh
   gradient norm :     0.0064810 Eh/α   predicted    -0.1573989E-03 ( -28.66%)
   displ. norm   :     0.1395729 α      lambda       -0.1645579E-03
   maximum displ.:     0.1335648 α      in ANC's #3, #9, #33, ...

........................................................................
.............................. CYCLE   27 ..............................
........................................................................
   1    -24.6243771 -0.246244E+02  0.402E-02    0.90       0.0  T
   2    -24.6243784 -0.134251E-05  0.231E-02    0.90       1.0  T
   3    -24.6243772  0.115945E-05  0.143E-02    0.90       1.6  T
   4    -24.6243792 -0.191090E-05  0.319E-03    0.90       7.2  T
   5    -24.6243793 -0.128989E-06  0.102E-03    0.90      22.4  T
   6    -24.6243793 -0.443938E-08  0.417E-04    0.90      55.1  T
   7    -24.6243793 -0.107555E-08  0.174E-04    0.90     132.2  T
     SCC iter.                  ...        0 min,  0.004 sec
     gradient                   ...        0 min,  0.001 sec
 * total energy  :   -24.1426812 Eh     change       -0.1333484E-03 Eh
   gradient norm :     0.0055331 Eh/α   predicted    -0.8388312E-04 ( -37.09%)
   displ. norm   :     0.1480562 α      lambda       -0.1567062E-03
   maximum displ.:     0.1405735 α      in ANC's #3, #9, #1, ...

........................................................................
.............................. CYCLE   28 ..............................
........................................................................
   1    -24.6251469 -0.246251E+02  0.475E-02    0.91       0.0  T
   2    -24.6251506 -0.370250E-05  0.251E-02    0.91       1.0  T
   3    -24.6251506 -0.444864E-07  0.184E-02    0.91       1.2  T
   4    -24.6251528 -0.219301E-05  0.432E-03    0.91       5.3  T
   5    -24.6251530 -0.223274E-06  0.121E-03    0.91      18.9  T
   6    -24.6251531 -0.107189E-07  0.534E-04    0.91      43.0  T
   7    -24.6251531 -0.152481E-08  0.251E-04    0.91      91.2  T
     SCC iter.                  ...        0 min,  0.004 sec
     gradient                   ...        0 min,  0.001 sec
 * total energy  :   -24.1428154 Eh     change       -0.1342746E-03 Eh
   gradient norm :     0.0056261 Eh/α   predicted    -0.8007159E-04 ( -40.37%)
   displ. norm   :     0.2106666 α      lambda       -0.2031580E-03
   maximum displ.:     0.1918476 α      in ANC's #3, #1, #4, ...

........................................................................
.............................. CYCLE   29 ..............................
........................................................................
   1    -24.6252637 -0.246253E+02  0.815E-02    0.91       0.0  T
   2    -24.6252726 -0.896702E-05  0.434E-02    0.91       1.0  T
   3    -24.6252714  0.125265E-05  0.319E-02    0.90       1.0  T
   4    -24.6252792 -0.784181E-05  0.560E-03    0.91       4.1  T
   5    -24.6252796 -0.396999E-06  0.163E-03    0.91      14.1  T
   6    -24.6252796 -0.212909E-07  0.741E-04    0.91      31.0  T
   7    -24.6252796 -0.286366E-08  0.359E-04    0.91      64.0  T
     SCC iter.                  ...        0 min,  0.004 sec
     gradient                   ...        0 min,  0.001 sec
 * total energy  :   -24.1429935 Eh     change       -0.1780502E-03 Eh
   gradient norm :     0.0064641 Eh/α   predicted    -0.1060875E-03 ( -40.42%)
   displ. norm   :     0.4516081 α      lambda       -0.4043832E-03
   maximum displ.:     0.3901998 α      in ANC's #3, #1, #4, ...

........................................................................
.............................. CYCLE   30 ..............................
........................................................................
   1    -24.6228015 -0.246228E+02  0.207E-01    0.90       0.0  T
   2    -24.6228387 -0.371246E-04  0.112E-01    0.94       1.0  T
   3    -24.6228156  0.230183E-04  0.880E-02    0.90       1.0  T
   4    -24.6228950 -0.793196E-04  0.129E-02    0.93       1.8  T
   5    -24.6228975 -0.252519E-05  0.276E-03    0.92       8.3  T
   6    -24.6228975 -0.397856E-07  0.179E-03    0.92      12.8  T
   7    -24.6228975 -0.130538E-07  0.519E-04    0.92      44.2  T
   8    -24.6228975 -0.257514E-08  0.201E-04    0.92     114.0  T
     SCC iter.                  ...        0 min,  0.005 sec
     gradient                   ...        0 min,  0.001 sec
 * total energy  :   -24.1433637 Eh     change       -0.3702130E-03 Eh
   gradient norm :     0.0118181 Eh/α   predicted    -0.2434335E-03 ( -34.25%)
   displ. norm   :     0.8151995 α      lambda       -0.7827791E-03
   maximum displ.:     0.6658450 α      in ANC's #3, #1, #4, ...

........................................................................
.............................. CYCLE   31 ..............................
........................................................................
   1    -24.6090543 -0.246091E+02  0.502E-01    0.88       0.0  T
   2    -24.6088873  0.167017E-03  0.308E-01    1.10       1.0  T
   3    -24.6095043 -0.616921E-03  0.258E-01    0.92       1.0  T
   4    -24.6102138 -0.709526E-03  0.758E-02    0.98       1.0  T
   5    -24.6102996 -0.858095E-04  0.112E-02    0.99       2.0  T
   6    -24.6103005 -0.899754E-06  0.531E-03    0.99       4.3  T
   7    -24.6103005 -0.305432E-07  0.249E-03    0.99       9.2  T
   8    -24.6103006 -0.648810E-07  0.923E-04    0.99      24.8  T
   9    -24.6103006 -0.473981E-08  0.445E-04    0.99      51.5  T
     SCC iter.                  ...        0 min,  0.006 sec
     gradient                   ...        0 min,  0.001 sec
 * total energy  :   -24.1436207 Eh     change       -0.2569822E-03 Eh
   gradient norm :     0.0292307 Eh/α   predicted    -0.6514911E-03 ( 153.52%)
   displ. norm   :     0.1410152 α      lambda       -0.9405898E-03
   maximum displ.:     0.1303573 α      in ANC's #3, #12, #2, ...

........................................................................
.............................. CYCLE   32 ..............................
........................................................................
   1    -24.6199930 -0.246200E+02  0.743E-02    1.00       0.0  T
   2    -24.6199950 -0.193551E-05  0.422E-02    0.99       1.0  T
   3    -24.6199822  0.127224E-04  0.361E-02    1.01       1.0  T
   4    -24.6200004 -0.181815E-04  0.762E-03    1.00       3.0  T
   5    -24.6200014 -0.994080E-06  0.221E-03    1.00      10.4  T
   6    -24.6200014 -0.127858E-07  0.113E-03    1.00      20.3  T
   7    -24.6200014 -0.104029E-07  0.378E-04    1.00      60.6  T
   8    -24.6200014 -0.571305E-09  0.179E-04    1.00     127.9  T
     SCC iter.                  ...        0 min,  0.005 sec
     gradient                   ...        0 min,  0.001 sec
 * total energy  :   -24.1441758 Eh     change       -0.5551420E-03 Eh
   gradient norm :     0.0202355 Eh/α   predicted    -0.4796568E-03 ( -13.60%)
   displ. norm   :     0.2218781 α      lambda       -0.8520177E-03
   maximum displ.:     0.1443051 α      in ANC's #4, #1, #9, ...

........................................................................
.............................. CYCLE   33 ..............................
........................................................................
   1    -24.6221995 -0.246222E+02  0.146E-01    1.02       0.0  T
   2    -24.6222016 -0.210340E-05  0.922E-02    1.05       1.0  T
   3    -24.6221360  0.655368E-04  0.794E-02    1.02       1.0  T
   4    -24.6222328 -0.967824E-04  0.110E-02    1.04       2.1  T
   5    -24.6222346 -0.177113E-05  0.248E-03    1.04       9.2  T
   6    -24.6222346 -0.446566E-07  0.155E-03    1.04      14.8  T
   7    -24.6222347 -0.156667E-07  0.530E-04    1.04      43.3  T
   8    -24.6222347 -0.264878E-08  0.199E-04    1.04     115.4  T
     SCC iter.                  ...        0 min,  0.005 sec
     gradient                   ...        0 min,  0.001 sec
 * total energy  :   -24.1448696 Eh     change       -0.6937577E-03 Eh
   gradient norm :     0.0169342 Eh/α   predicted    -0.4469827E-03 ( -35.57%)
   displ. norm   :     0.4659536 α      lambda       -0.1494559E-02
   maximum displ.:     0.2926968 α      in ANC's #4, #1, #9, ...

........................................................................
.............................. CYCLE   34 ..............................
........................................................................
   1    -24.6199835 -0.246200E+02  0.301E-01    1.10       0.0  T
   2    -24.6200065 -0.230155E-04  0.183E-01    1.13       1.0  T
   3    -24.6197284  0.278163E-03  0.143E-01    1.09       1.0  T
   4    -24.6200583 -0.329962E-03  0.234E-02    1.13       1.0  T
   5    -24.6200682 -0.987404E-05  0.509E-03    1.12       4.5  T
   6    -24.6200686 -0.334154E-06  0.260E-03    1.13       8.8  T
   7    -24.6200686 -0.409240E-07  0.106E-03    1.12      21.6  T
   8    -24.6200686 -0.959353E-08  0.358E-04    1.12      64.0  T
   9    -24.6200686 -0.319300E-09  0.171E-04    1.12     133.9  T
     SCC iter.                  ...        0 min,  0.006 sec
     gradient                   ...        0 min,  0.001 sec
 * total energy  :   -24.1458737 Eh     change       -0.1004075E-02 Eh
   gradient norm :     0.0189471 Eh/α   predicted    -0.9095255E-03 (  -9.42%)
   displ. norm   :     0.3264798 α      lambda       -0.1283929E-02
   maximum displ.:     0.1701946 α      in ANC's #9, #4, #1, ...

........................................................................
.............................. CYCLE   35 ..............................
........................................................................
   1    -24.6221308 -0.246221E+02  0.246E-01    1.24       0.0  T
   2    -24.6221441 -0.133197E-04  0.154E-01    1.15       1.0  T
   3    -24.6220906  0.534823E-04  0.120E-01    1.23       1.0  T
   4    -24.6222876 -0.196963E-03  0.275E-02    1.19       1.0  T
   5    -24.6222982 -0.105972E-04  0.474E-03    1.19       4.8  T
   6    -24.6222983 -0.120935E-06  0.260E-03    1.19       8.8  T
   7    -24.6222983 -0.223208E-07  0.966E-04    1.19      23.7  T
   8    -24.6222984 -0.104969E-07  0.322E-04    1.19      71.2  T
     SCC iter.                  ...        0 min,  0.005 sec
     gradient                   ...        0 min,  0.001 sec
 * total energy  :   -24.1467236 Eh     change       -0.8499476E-03 Eh
   gradient norm :     0.0242014 Eh/α   predicted    -0.7103982E-03 ( -16.42%)
   displ. norm   :     0.6321531 α      lambda       -0.2038453E-02
   maximum displ.:     0.3284269 α      in ANC's #1, #4, #9, ...

........................................................................
.............................. CYCLE   36 ..............................
........................................................................
   1    -24.6149605 -0.246150E+02  0.366E-01    1.33       0.0  T
   2    -24.6149799 -0.193955E-04  0.211E-01    1.37       1.0  T
   3    -24.6146839  0.296014E-03  0.145E-01    1.31       1.0  T
   4    -24.6150446 -0.360720E-03  0.195E-02    1.36       1.2  T
   5    -24.6150509 -0.621927E-05  0.403E-03    1.36       5.7  T
   6    -24.6150509 -0.455320E-07  0.234E-03    1.36       9.8  T
   7    -24.6150509 -0.368326E-07  0.644E-04    1.36      35.6  T
   8    -24.6150510 -0.403497E-08  0.346E-04    1.36      66.2  T
     SCC iter.                  ...        0 min,  0.005 sec
     gradient                   ...        0 min,  0.001 sec
 * total energy  :   -24.1485646 Eh     change       -0.1840979E-02 Eh
   gradient norm :     0.0306734 Eh/α   predicted    -0.1426546E-02 ( -22.51%)
   displ. norm   :     0.6660017 α      lambda       -0.4267985E-02
   maximum displ.:     0.4067051 α      in ANC's #9, #1, #4, ...

........................................................................
.............................. CYCLE   37 ..............................
........................................................................
   1    -24.6167244 -0.246167E+02  0.421E-01    1.74       0.0  T
   2    -24.6168601 -0.135635E-03  0.234E-01    1.73       1.0  T
   3    -24.6168522  0.790600E-05  0.186E-01    1.73       1.0  T
   4    -24.6171308 -0.278658E-03  0.310E-02    1.73       1.0  T
   5    -24.6171471 -0.162754E-04  0.898E-03    1.73       2.6  T
   6    -24.6171472 -0.848780E-07  0.494E-03    1.73       4.6  T
   7    -24.6171476 -0.381316E-06  0.102E-03    1.73      22.6  T
   8    -24.6171476 -0.861652E-08  0.536E-04    1.73      42.8  T
   9    -24.6171476 -0.254505E-08  0.177E-04    1.73     129.7  T
     SCC iter.                  ...        0 min,  0.006 sec
     gradient                   ...        0 min,  0.001 sec
 * total energy  :   -24.1513326 Eh     change       -0.2767987E-02 Eh
   gradient norm :     0.0530835 Eh/α   predicted    -0.3080548E-02 (  11.29%)
   displ. norm   :     0.6824243 α      lambda       -0.5648859E-02
   maximum displ.:     0.3902550 α      in ANC's #9, #1, #4, ...

........................................................................
.............................. CYCLE   38 ..............................
........................................................................
   1    -24.6140459 -0.246140E+02  0.513E-01    1.95       0.0  T
   2    -24.6142121 -0.166226E-03  0.280E-01    2.00       1.0  T
   3    -24.6140206  0.191480E-03  0.214E-01    1.99       1.0  T
   4    -24.6144370 -0.416354E-03  0.329E-02    1.99       1.0  T
   5    -24.6144554 -0.184183E-04  0.862E-03    2.00       2.7  T
   6    -24.6144558 -0.409980E-06  0.452E-03    2.00       5.1  T
   7    -24.6144559 -0.767864E-07  0.130E-03    2.00      17.6  T
   8    -24.6144559 -0.177678E-07  0.492E-04    2.00      46.6  T
   9    -24.6144559 -0.253652E-08  0.208E-04    2.00     110.2  T
     SCC iter.                  ...        0 min,  0.006 sec
     gradient                   ...        0 min,  0.001 sec
 * total energy  :   -24.1578459 Eh     change       -0.6513325E-02 Eh
   gradient norm :     0.0739550 Eh/α   predicted    -0.4139781E-02 ( -36.44%)
   displ. norm   :     0.6163998 α      lambda       -0.1045154E-01
   maximum displ.:     0.4084943 α      in ANC's #9, #1, #15, ...

........................................................................
.............................. CYCLE   39 ..............................
........................................................................
   1    -24.6226913 -0.246227E+02  0.521E-01    2.01       0.0  T
   2    -24.6230816 -0.390257E-03  0.294E-01    2.25       1.0  T
   3    -24.6233071 -0.225512E-03  0.219E-01    2.15       1.0  T
   4    -24.6236047 -0.297611E-03  0.456E-02    2.16       1.0  T
   5    -24.6236431 -0.383745E-04  0.113E-02    2.19       2.0  T
   6    -24.6236443 -0.120690E-05  0.507E-03    2.19       4.5  T
   7    -24.6236443 -0.371406E-07  0.167E-03    2.18      13.7  T
   8    -24.6236444 -0.334578E-07  0.597E-04    2.18      38.5  T
   9    -24.6236444 -0.223825E-08  0.268E-04    2.18      85.5  T
     SCC iter.                  ...        0 min,  0.006 sec
     gradient                   ...        0 min,  0.001 sec
 * total energy  :   -24.1696281 Eh     change       -0.1178223E-01 Eh
   gradient norm :     0.1128265 Eh/α   predicted    -0.7211302E-02 ( -38.80%)
   displ. norm   :     0.5487567 α      lambda       -0.1771936E-01
   maximum displ.:     0.3510191 α      in ANC's #9, #1, #15, ...

........................................................................
.............................. CYCLE   40 ..............................
........................................................................
   1    -24.6379645 -0.246380E+02  0.666E-01    2.47       0.0  T
   2    -24.6389606 -0.996077E-03  0.336E-01    2.66       1.0  T
   3    -24.6390861 -0.125510E-03  0.252E-01    2.61       1.0  T
   4    -24.6395090 -0.422876E-03  0.641E-02    2.62       1.0  T
   5    -24.6395549 -0.459267E-04  0.208E-02    2.63       1.1  T
   6    -24.6395600 -0.511367E-05  0.807E-03    2.63       2.8  T
   7    -24.6395603 -0.297986E-06  0.258E-03    2.63       8.9  T
   8    -24.6395604 -0.257403E-07  0.117E-03    2.63      19.6  T
   9    -24.6395604 -0.135008E-07  0.481E-04    2.63      47.7  T
  10    -24.6395604 -0.181916E-08  0.171E-04    2.63     134.2  T
     SCC iter.                  ...        0 min,  0.006 sec
     gradient                   ...        0 min,  0.001 sec
 * total energy  :   -24.1870668 Eh     change       -0.1743867E-01 Eh
   gradient norm :     0.1264787 Eh/α   predicted    -0.1152765E-01 ( -33.90%)
   displ. norm   :     0.7924863 α      lambda       -0.6124485E-01
   maximum displ.:     0.3006524 α      in ANC's #22, #9, #37, ...

........................................................................
.............................. CYCLE   41 ..............................
........................................................................
   1    -24.6789520 -0.246790E+02  0.124E+00    2.91       0.0  T
   2    -24.6839321 -0.498012E-02  0.782E-01    2.99       1.0  T
   3    -24.6866461 -0.271392E-02  0.448E-01    2.99       1.0  T
   4    -24.6872153 -0.569246E-03  0.155E-01    2.99       1.0  T
   5    -24.6874213 -0.206003E-03  0.731E-02    2.99       1.0  T
   6    -24.6874883 -0.670340E-04  0.253E-02    2.99       1.0  T
   7    -24.6874915 -0.315642E-05  0.817E-03    2.99       2.8  T
   8    -24.6874918 -0.283074E-06  0.267E-03    2.99       8.6  T
   9    -24.6874918 -0.417452E-07  0.139E-03    2.99      16.5  T
  10    -24.6874918 -0.172885E-07  0.607E-04    2.99      37.8  T
  11    -24.6874918 -0.114175E-08  0.201E-04    2.99     114.0  T
     SCC iter.                  ...        0 min,  0.007 sec
     gradient                   ...        0 min,  0.001 sec
 * total energy  :   -24.1966797 Eh     change       -0.9612921E-02 Eh
   gradient norm :     0.2285903 Eh/α   predicted    -0.4985443E-01 ( 418.62%)
   displ. norm   :     0.3920236 α      lambda       -0.6453191E-01
   maximum displ.:     0.1426590 α      in ANC's #2, #1, #10, ...

........................................................................
.............................. CYCLE   42 ..............................
........................................................................
   1    -24.6859690 -0.246860E+02  0.628E-01    3.01       0.0  T
   2    -24.6872248 -0.125585E-02  0.486E-01    3.00       1.0  T
   3    -24.6896276 -0.240274E-02  0.212E-01    3.00       1.0  T
   4    -24.6896466 -0.189909E-04  0.651E-02    3.00       1.0  T
   5    -24.6896901 -0.435514E-04  0.286E-02    3.00       1.0  T
   6    -24.6896966 -0.651880E-05  0.125E-02    3.00       1.8  T
   7    -24.6896973 -0.631522E-06  0.497E-03    3.00       4.6  T
   8    -24.6896975 -0.267089E-06  0.208E-03    3.00      11.0  T
   9    -24.6896976 -0.542142E-07  0.705E-04    3.00      32.5  T
  10    -24.6896976 -0.898702E-09  0.156E-04    3.00     146.9  T
     SCC iter.                  ...        0 min,  0.006 sec
     gradient                   ...        0 min,  0.001 sec
 * total energy  :   -24.2230300 Eh     change       -0.2635027E-01 Eh
   gradient norm :     0.1294793 Eh/α   predicted    -0.3722459E-01 (  41.27%)
   displ. norm   :     0.3826250 α      lambda       -0.1593006E-01
   maximum displ.:     0.2298293 α      in ANC's #2, #11, #9, ...
 * RMSD in coord.:     1.4071880 α      energy gain  -0.9686589E-01 Eh

generating ANC from model Hessian ...
Using Lindh-Hessian (1995)
 Shifting diagonal of input Hessian by   8.274560385983953E-003
 Lowest  eigenvalues of input Hessian
    0.000000    0.000000    0.000000    0.000000    0.000000    0.000000
    0.010000    0.011678    0.012135    0.014190    0.016008    0.019111
    0.021485    0.024122    0.029800    0.037920    0.040453    0.049404
 Highest eigenvalues
    1.529986    1.707389    1.785437    1.891655    2.048450    2.055284
 

........................................................................
.............................. CYCLE   43 ..............................
........................................................................
   1    -24.6905037 -0.246905E+02  0.362E-01    3.00       0.0  T
   2    -24.6907826 -0.278839E-03  0.211E-01    3.01       1.0  T
   3    -24.6907771  0.549432E-05  0.913E-02    3.01       1.0  T
   4    -24.6908082 -0.311175E-04  0.308E-02    3.02       1.0  T
   5    -24.6908199 -0.116858E-04  0.121E-02    3.01       1.9  T
   6    -24.6908210 -0.111780E-05  0.481E-03    3.01       4.8  T
   7    -24.6908211 -0.138771E-06  0.284E-03    3.01       8.1  T
   8    -24.6908212 -0.696130E-07  0.776E-04    3.01      29.6  T
   9    -24.6908212 -0.140400E-08  0.422E-04    3.01      54.4  T
     SCC iter.                  ...        0 min,  0.006 sec
     gradient                   ...        0 min,  0.001 sec
 * total energy  :   -24.2320260 Eh     change       -0.8995968E-02 Eh
   gradient norm :     0.1342950 Eh/α   predicted     0.0000000E+00 (-100.00%)
   displ. norm   :     0.4908115 α      lambda       -0.3243579E-01
   maximum displ.:     0.2406992 α      in ANC's #16, #11, #10, ...

........................................................................
.............................. CYCLE   44 ..............................
........................................................................
   1    -24.7092865 -0.247093E+02  0.481E-01    3.08       0.0  T
   2    -24.7093986 -0.112105E-03  0.288E-01    3.09       1.0  T
   3    -24.7090447  0.353890E-03  0.184E-01    3.09       1.0  T
   4    -24.7094802 -0.435472E-03  0.233E-02    3.09       1.0  T
   5    -24.7094863 -0.616269E-05  0.106E-02    3.09       2.2  T
   6    -24.7094873 -0.940317E-06  0.593E-03    3.09       3.9  T
   7    -24.7094875 -0.212940E-06  0.215E-03    3.09      10.7  T
   8    -24.7094875 -0.364975E-07  0.104E-03    3.09      22.0  T
   9    -24.7094875 -0.972544E-08  0.394E-04    3.09      58.3  T
  10    -24.7094875 -0.508425E-09  0.707E-05    3.09     324.6  T
     SCC iter.                  ...        0 min,  0.006 sec
     gradient                   ...        0 min,  0.001 sec
 * total energy  :   -24.2540131 Eh     change       -0.2198709E-01 Eh
   gradient norm :     0.0513905 Eh/α   predicted    -0.2016594E-01 (  -8.28%)
   displ. norm   :     0.4380268 α      lambda       -0.1185224E-01
   maximum displ.:     0.2277729 α      in ANC's #12, #10, #1, ...

........................................................................
.............................. CYCLE   45 ..............................
........................................................................
   1    -24.7254382 -0.247254E+02  0.399E-01    3.17       0.0  T
   2    -24.7254697 -0.314671E-04  0.237E-01    3.18       1.0  T
   3    -24.7253371  0.132557E-03  0.958E-02    3.18       1.0  T
   4    -24.7254848 -0.147704E-03  0.154E-02    3.18       1.5  T
   5    -24.7254868 -0.204354E-05  0.815E-03    3.18       2.8  T
   6    -24.7254873 -0.424603E-06  0.371E-03    3.18       6.2  T
   7    -24.7254873 -0.582637E-07  0.117E-03    3.18      19.6  T
   8    -24.7254873 -0.924279E-08  0.473E-04    3.18      48.5  T
   9    -24.7254873 -0.161151E-08  0.237E-04    3.18      96.6  T
     SCC iter.                  ...        0 min,  0.006 sec
     gradient                   ...        0 min,  0.001 sec
 * total energy  :   -24.2604787 Eh     change       -0.6465630E-02 Eh
   gradient norm :     0.0343658 Eh/α   predicted    -0.7063173E-02 (   9.24%)
   displ. norm   :     0.2374887 α      lambda       -0.3104427E-02
   maximum displ.:     0.1043349 α      in ANC's #9, #10, #1, ...

........................................................................
.............................. CYCLE   46 ..............................
........................................................................
   1    -24.7293420 -0.247293E+02  0.238E-01    3.22       0.0  T
   2    -24.7293458 -0.381639E-05  0.139E-01    3.22       1.0  T
   3    -24.7293157  0.301215E-04  0.477E-02    3.22       1.0  T
   4    -24.7293493 -0.335992E-04  0.569E-03    3.22       4.0  T
   5    -24.7293494 -0.133578E-06  0.329E-03    3.22       7.0  T
   6    -24.7293495 -0.399968E-07  0.215E-03    3.22      10.7  T
   7    -24.7293495 -0.365084E-07  0.365E-04    3.22      62.9  T
   8    -24.7293495 -0.195293E-10  0.244E-04    3.22      94.0  T
     SCC iter.                  ...        0 min,  0.005 sec
     gradient                   ...        0 min,  0.001 sec
 * total energy  :   -24.2619686 Eh     change       -0.1489935E-02 Eh
   gradient norm :     0.0138167 Eh/α   predicted    -0.1639782E-02 (  10.06%)
   displ. norm   :     0.1515957 α      lambda       -0.6764296E-03
   maximum displ.:     0.1117085 α      in ANC's #1, #5, #7, ...

........................................................................
.............................. CYCLE   47 ..............................
........................................................................
   1    -24.7303516 -0.247304E+02  0.145E-01    3.23       0.0  T
   2    -24.7303533 -0.166912E-05  0.863E-02    3.23       1.0  T
   3    -24.7303480  0.527355E-05  0.177E-02    3.23       1.3  T
   4    -24.7303537 -0.573177E-05  0.436E-03    3.23       5.3  T
   5    -24.7303540 -0.252168E-06  0.138E-03    3.23      16.7  T
   6    -24.7303540  0.504446E-09  0.922E-04    3.23      24.9  T
   7    -24.7303540 -0.762037E-08  0.140E-04    3.23     163.9  T
     SCC iter.                  ...        0 min,  0.005 sec
     gradient                   ...        0 min,  0.001 sec
 * total energy  :   -24.2623784 Eh     change       -0.4097577E-03 Eh
   gradient norm :     0.0087131 Eh/α   predicted    -0.3459980E-03 ( -15.56%)
   displ. norm   :     0.1205167 α      lambda       -0.2620412E-03
[...]
 * total energy  :   -24.2659068 Eh     change       -0.8653327E-05 Eh
   gradient norm :     0.0007799 Eh/α   predicted    -0.4667645E-05 ( -46.06%)
   displ. norm   :     0.0984781 α      lambda       -0.5907220E-05
   maximum displ.:     0.0687486 α      in ANC's #1, #2, #3, ...

........................................................................
.............................. CYCLE  101 ..............................
........................................................................
   1    -24.7350789 -0.247351E+02  0.579E-02    3.18       0.0  T
   2    -24.7350790 -0.795464E-07  0.342E-02    3.18       1.0  T
   3    -24.7350783  0.699345E-06  0.709E-03    3.18       3.2  T
   4    -24.7350791 -0.782322E-06  0.690E-04    3.18      33.2  T
   5    -24.7350791 -0.221647E-08  0.442E-04    3.18      51.9  T
     SCC iter.                  ...        0 min,  0.003 sec
     gradient                   ...        0 min,  0.001 sec
 * total energy  :   -24.2659106 Eh     change       -0.3790186E-05 Eh
   gradient norm :     0.0007169 Eh/α   predicted    -0.2966825E-05 ( -21.72%)
   displ. norm   :     0.0305092 α      lambda       -0.2179609E-05
   maximum displ.:     0.0220593 α      in ANC's #1, #2, #4, ...

   *** GEOMETRY OPTIMIZATION CONVERGED AFTER 101 ITERATIONS ***

------------------------------------------------------------------------
 total energy gain   :        -0.3278086 Eh     -205.7030 kcal/mol
 total RMSD          :         1.9648557 a0        1.0398 Å
 total power (kW/mol):        -8.5213989 (step)-1060.4738 (real)
------------------------------------------------------------------------

 ANCopt (total)                0 d,  0 h,  0 min,  0.812 sec
 optimizer setup                ...        0 min,  0.000 sec (  0.017%)
 model hessian                  ...        0 min,  0.018 sec (  2.213%)
 ANC generation                 ...        0 min,  0.002 sec (  0.296%)
 coordinate transformation      ...        0 min,  0.002 sec (  0.260%)
 single point calculation       ...        0 min,  0.756 sec ( 93.207%)
 optimization log               ...        0 min,  0.011 sec (  1.387%)
 hessian update                 ...        0 min,  0.002 sec (  0.261%)
 rational function              ...        0 min,  0.011 sec (  1.377%)

================
 final structure:
================
19
 xtb: 6.4.1 (unknown)
C         1.21849393805282   -0.14059588231318   -0.09077480025091
C        -0.48794418455855    1.33358248542848   -0.46367646237084
C         0.12498690365069   -0.90664326658172   -0.29495189116012
C         0.81901766831999    1.25928545596840   -0.19911008454486
C        -1.07557348252366   -0.04624843076403   -0.54424920230310
H        -1.08332578306138    2.21932149303108   -0.58984387026013
H         0.07270966953947   -1.98003993985682   -0.27513252504270
H         1.49270063612012    2.08834444241591   -0.08179445015076
H        -1.49723570866636   -0.23639559370328   -1.53677586702846
C         2.55253193197573   -0.63071297804184    0.18159028915443
C        -2.14168567021374   -0.25836038228034    0.49173028694679
H         2.63541877160799   -1.70965413508605    0.23997129189906
H        -1.81638845737764   -0.09521923614392    1.51035989703471
C         3.63258143926512    0.12352476071041    0.35429101402726
C        -3.38446697106003   -0.61242509295570    0.22450463495099
H         3.59884257627629    1.19853740113439    0.30203318015567
H        -3.72707389065602   -0.77698947015187   -0.78469958532132
H         4.59734459852731   -0.31106450359948    0.55332896455445
H        -4.11568066281773   -0.74846891261053    1.00319917970967
 
 Bond Distances (Angstroems)
 ---------------------------
C1-C3=1.3507         C1-C4=1.4598         C1-C10=1.4471        C2-C4=1.3355         C2-C5=1.5019         C2-H6=1.0747         
C3-C1=1.3507         C3-C5=1.4979         C3-H7=1.0749         C4-C1=1.4598         C4-C2=1.3355         C4-H8=1.0747         
C5-C2=1.5019         C5-C3=1.4979         C5-H9=1.0950         C5-C11=1.5016        H6-C2=1.0747         H7-C3=1.0749         
H8-C4=1.0747         H9-C5=1.0950         C10-C1=1.4471        C10-H12=1.0837       C10-C14=1.3286       C11-C5=1.5016        
C11-H13=1.0817       C11-C15=1.3196       H12-C10=1.0837       H13-C11=1.0817       C14-C10=1.3286       C14-H16=1.0768       
C14-H18=1.0767       C15-C11=1.3196       C15-H17=1.0784       C15-H19=1.0768       H16-C14=1.0768       H17-C15=1.0784       
H18-C14=1.0767       H19-C15=1.0768       
 C  H  Rav=1.0793 sigma=0.0060  Rmin=1.0747  Rmax=1.0950    10
 C  C  Rav=1.4159 sigma=0.0760  Rmin=1.3196  Rmax=1.5019     9
 
 selected bond angles (degree)
 --------------------
C4-C1-C3=108.13                C10-C1-C3=125.64               C10-C1-C4=126.23               C5-C2-C4=110.02                
H6-C2-C4=127.68                H6-C2-C5=122.29                C5-C3-C1=110.38                H7-C3-C1=127.08                
H7-C3-C5=122.53                C2-C4-C1=109.62                H8-C4-C1=124.07                H8-C4-C2=126.31                
C3-C5-C2=101.84                H9-C5-C2=111.03                H9-C5-C3=111.08                C11-C5-C2=111.75               
C11-C5-C3=111.91               C11-C5-H9=109.11               H12-C10-C1=114.70              C14-C10-C1=125.56              
C14-C10-H12=119.74             
 
 selected dihedral angles (degree)
 ---------------------------------
C5-C3-C1-C4=359.64            C5-C3-C1-C10=179.89           H7-C3-C1-C4=180.57            H7-C3-C1-C10=  0.83           
C2-C4-C1-C3=359.97            C2-C4-C1-C10=179.71           H8-C4-C1-C3=180.08            H8-C4-C1-C10=359.82           
C1-C4-C2-C5=  0.41            C1-C4-C2-H6=179.25            H8-C4-C2-C5=180.29            H8-C4-C2-H6=359.14            
C3-C5-C2-C4=359.42            C3-C5-C2-H6=180.50            H9-C5-C2-C4=241.10            H9-C5-C2-H6= 62.18            
C11-C5-C2-C4=119.02           C11-C5-C2-H6=300.10           C2-C5-C3-C1=  0.57            C2-C5-C3-H7=179.68            
H9-C5-C3-C1=118.85            H9-C5-C3-H7=297.96            C11-C5-C3-C1=241.07           C11-C5-C3-H7= 60.19           
H12-C10-C1-C3=358.61          H12-C10-C1-C4=178.91          C14-C10-C1-C3=178.49          C14-C10-C1-C4=358.79          
 
 CMA Distance (Angstroems)
 ---------------------------
R(CMA):  3.8996
           -------------------------------------------------
          |                Final Singlepoint                |
           -------------------------------------------------

          ...................................................
          :                      SETUP                      :
          :.................................................:
          :  # basis functions                  46          :
          :  # atomic orbitals                  46          :
          :  # shells                           28          :
          :  # electrons                        46          :
          :  max. iterations                   250          :
          :  Hamiltonian                  GFN2-xTB          :
          :  restarted?                      false          :
          :  GBSA solvation                  false          :
          :  PC potential                    false          :
          :  electronic temp.          300.0000000     K    :
          :  accuracy                    1.0000000          :
          :  -> integral cutoff          0.2500000E+02      :
          :  -> integral neglect         0.1000000E-07      :
          :  -> SCF convergence          0.1000000E-05 Eh   :
          :  -> wf. convergence          0.1000000E-03 e    :
          :  Broyden damping             0.4000000          :
          ...................................................

 iter      E             dE          RMSdq      gap      omega  full diag
   1    -24.7350791 -0.247351E+02  0.171E-04    3.18       0.0  T
   2    -24.7350791  0.278249E-10  0.158E-04    3.18     145.6  T
   3    -24.7350791 -0.291404E-09  0.641E-05    3.18     357.8  T

   *** convergence criteria satisfied after 3 iterations ***

         #    Occupation            Energy/Eh            Energy/eV
      -------------------------------------------------------------
         1        2.0000           -0.6472852             -17.6135
       ...           ...                  ...                  ...
        17        2.0000           -0.4479547             -12.1895
        18        2.0000           -0.4380833             -11.9209
        19        2.0000           -0.4338652             -11.8061
        20        2.0000           -0.4208019             -11.4506
        21        2.0000           -0.4068824             -11.0718
        22        2.0000           -0.4020067             -10.9392
        23        2.0000           -0.3687111             -10.0331 (HOMO)
        24                         -0.2517108              -6.8494 (LUMO)
        25                         -0.2122859              -5.7766
        26                         -0.2001757              -5.4471
        27                         -0.1055079              -2.8710
        28                          0.0973601               2.6493
       ...                                ...                  ...
        46                          0.7096876              19.3116
      -------------------------------------------------------------
                  HL-Gap            0.1170004 Eh            3.1837 eV
             Fermi-level           -0.3102109 Eh           -8.4413 eV

 SCC (total)                   0 d,  0 h,  0 min,  0.004 sec
 SCC setup                      ...        0 min,  0.000 sec (  1.993%)
 Dispersion                     ...        0 min,  0.000 sec (  2.157%)
 classical contributions        ...        0 min,  0.000 sec (  0.486%)
 integral evaluation            ...        0 min,  0.000 sec ( 10.763%)
 iterations                     ...        0 min,  0.002 sec ( 52.337%)
 molecular gradient             ...        0 min,  0.001 sec ( 28.287%)
 printout                       ...        0 min,  0.000 sec (  2.108%)

         :::::::::::::::::::::::::::::::::::::::::::::::::::::
         ::                     SUMMARY                     ::
         :::::::::::::::::::::::::::::::::::::::::::::::::::::
         :: total energy             -24.265910603484 Eh    ::
         :: gradient norm              0.000716006611 Eh/a0 ::
         :: HOMO-LUMO gap              3.183742742124 eV    ::
         ::.................................................::
         :: SCC energy               -24.735079066977 Eh    ::
         :: -> isotropic ES            0.002618417499 Eh    ::
         :: -> anisotropic ES          0.004605109739 Eh    ::
         :: -> anisotropic XC          0.019900694393 Eh    ::
         :: -> dispersion             -0.014579674078 Eh    ::
         :: repulsion energy           0.469180641564 Eh    ::
         :: add. restraining           0.000000000000 Eh    ::
         :: total charge              -0.000000000000 e     ::
         :::::::::::::::::::::::::::::::::::::::::::::::::::::

           -------------------------------------------------
          |                Property Printout                |
           -------------------------------------------------

    * Orbital Energies and Occupations

         #    Occupation            Energy/Eh            Energy/eV
      -------------------------------------------------------------
         1        2.0000           -0.6472852             -17.6135
       ...           ...                  ...                  ...
        11        2.0000           -0.5018865             -13.6570
        12        2.0000           -0.4981046             -13.5541
        13        2.0000           -0.4817114             -13.1080
        14        2.0000           -0.4619459             -12.5702
        15        2.0000           -0.4569565             -12.4344
        16        2.0000           -0.4558263             -12.4037
        17        2.0000           -0.4479547             -12.1895
        18        2.0000           -0.4380833             -11.9209
        19        2.0000           -0.4338652             -11.8061
        20        2.0000           -0.4208019             -11.4506
        21        2.0000           -0.4068824             -11.0718
        22        2.0000           -0.4020067             -10.9392
        23        2.0000           -0.3687111             -10.0331 (HOMO)
        24                         -0.2517108              -6.8494 (LUMO)
        25                         -0.2122859              -5.7766
        26                         -0.2001757              -5.4471
        27                         -0.1055079              -2.8710
        28                          0.0973601               2.6493
        29                          0.1093828               2.9765
        30                          0.1147668               3.1230
        31                          0.1237907               3.3685
        32                          0.1388842               3.7792
        33                          0.1455388               3.9603
        34                          0.1686348               4.5888
       ...                                ...                  ...
        46                          0.7096876              19.3116
      -------------------------------------------------------------
                  HL-Gap            0.1170004 Eh            3.1837 eV
             Fermi-level           -0.3102109 Eh           -8.4413 eV

     #   Z          covCN         q      C6AA      α(0)
     1   6 C        3.043     0.007    27.822     8.651
     2   6 C        2.992    -0.042    29.038     8.839
     3   6 C        3.003    -0.047    29.163     8.859
     4   6 C        2.997    -0.040    28.980     8.831
     5   6 C        3.934    -0.019    20.848     6.489
     6   1 H        0.926     0.028     2.616     2.529
     7   1 H        0.926     0.028     2.612     2.527
     8   1 H        0.926     0.031     2.571     2.507
     9   1 H        0.924     0.062     2.176     2.307
    10   6 C        2.891    -0.028    28.699     8.783
    11   6 C        2.893    -0.016    28.421     8.741
    12   1 H        0.925     0.030     2.579     2.512
    13   1 H        0.925     0.036     2.496     2.471
    14   6 C        2.839    -0.086    30.135     8.996
    15   6 C        2.836    -0.094    30.343     9.027
    16   1 H        0.926     0.040     2.447     2.446
    17   1 H        0.926     0.038     2.478     2.461
    18   1 H        0.926     0.033     2.546     2.495
    19   1 H        0.926     0.038     2.469     2.457

 Mol. C6AA /au·bohr⁶  :       4027.683229
 Mol. C8AA /au·bohr⁸  :      96897.935739
 Mol. α(0) /au        :        101.928856


Wiberg/Mayer (AO) data.
largest (>0.10) Wiberg bond orders for each atom

 ---------------------------------------------------------------------------
     #   Z sym  total        # sym  WBO       # sym  WBO       # sym  WBO
 ---------------------------------------------------------------------------
     1   6 C    3.987 --     3 C    1.697    10 C    1.104     4 C    1.098
     2   6 C    3.988 --     4 C    1.829     5 C    1.005     6 H    0.973
                             3 C    0.104
     3   6 C    3.987 --     1 C    1.697     5 C    1.013     7 H    0.973
                            14 C    0.125     2 C    0.104
     4   6 C    3.989 --     2 C    1.829     1 C    1.098     8 H    0.969
     5   6 C    3.996 --     3 C    1.013     2 C    1.005    11 C    0.979
                             9 H    0.924
     6   1 H    0.999 --     2 C    0.973
     7   1 H    0.999 --     3 C    0.973
     8   1 H    0.998 --     4 C    0.969
     9   1 H    0.992 --     5 C    0.924
    10   6 C    3.992 --    14 C    1.891     1 C    1.104    12 H    0.965
    11   6 C    3.985 --    15 C    1.971     5 C    0.979    13 H    0.967
    12   1 H    0.999 --    10 C    0.965
    13   1 H    0.999 --    11 C    0.967
    14   6 C    3.983 --    10 C    1.891    18 H    0.979    16 H    0.975
                             3 C    0.125
    15   6 C    3.988 --    11 C    1.971    17 H    0.975    19 H    0.975
    16   1 H    0.998 --    14 C    0.975
    17   1 H    0.999 --    15 C    0.975
    18   1 H    0.998 --    14 C    0.979
    19   1 H    0.996 --    15 C    0.975
 ---------------------------------------------------------------------------

Topologies differ in total number of bonds
Writing topology from bond orders to xtbtopo.mol

molecular dipole:
                 x           y           z       tot (Debye)
 q only:       -0.158      -0.027      -0.064
   full:       -0.178      -0.038      -0.068       0.495
molecular quadrupole (traceless):
                xx          xy          yy          xz          yz          zz
 q only:        0.492       0.341      -0.039       0.570       0.100      -0.453
  q+dip:        2.638       1.308       0.568       2.205       0.354      -3.206
   full:        0.902       0.562       0.305       1.208       0.219      -1.206

           -------------------------------------------------
          |                Geometry Summary                 |
           -------------------------------------------------

      molecular mass/u    :      118.1760306
   center of mass at/Å    :        0.1291917       0.0093400      -0.0317159
  moments of inertia/u·Å² :        0.9868685E+02   0.5707934E+03   0.6341776E+03
rotational constants/cm⁻¹ :        0.1708194E+00   0.2953368E-01   0.2658188E-01

 * 14 selected distances

     #   Z          #   Z                                           value/Å
     1   6 C        3   6 C                                       1.3506571 (max)
     2   6 C        4   6 C                                       1.3355391
     2   6 C        6   1 H                                       1.0746772 (min)
     3   6 C        7   1 H                                       1.0748517
     4   6 C        8   1 H                                       1.0746862
     5   6 C        9   1 H                                       1.0950179
    10   6 C       12   1 H                                       1.0836940
    11   6 C       13   1 H                                       1.0816837
    10   6 C       14   6 C                                       1.3286109
    11   6 C       15   6 C                                       1.3195745
    14   6 C       16   1 H                                       1.0768107
    15   6 C       17   1 H                                       1.0784035
    14   6 C       18   1 H                                       1.0766856
    15   6 C       19   1 H                                       1.0768224

 * 2 distinct bonds (by element types)

   Z      Z             #   av. dist./Å        max./Å        min./Å
   1 H    6 C          10     1.0793333     1.0950179     1.0746772
   6 C    6 C           4     1.3335954     1.3506571     1.3195745


optimized geometry written to: xtbopt.xyz


           -------------------------------------------------
          | TOTAL ENERGY              -24.265910603484 Eh   |
          | GRADIENT NORM               0.000716006611 Eh/α |
          | HOMO-LUMO GAP               3.183742742124 eV   |
           -------------------------------------------------

------------------------------------------------------------------------
 * finished run on 2022/05/03 at 13:16:23.821     
------------------------------------------------------------------------
 total:
 * wall-time:     0 d,  0 h,  0 min,  0.887 sec
 *  cpu-time:     0 d,  0 h,  0 min, 10.511 sec
 * ratio c/w:    11.855 speedup
 SCF:
 * wall-time:     0 d,  0 h,  0 min,  0.015 sec
 *  cpu-time:     0 d,  0 h,  0 min,  0.177 sec
 * ratio c/w:    11.938 speedup
 ANC optimizer:
 * wall-time:     0 d,  0 h,  0 min,  0.829 sec
 *  cpu-time:     0 d,  0 h,  0 min,  9.920 sec
 * ratio c/w:    11.966 speedup

