3
 energy: -5.070544323637 gnorm: 0.000458106902 xtb: 6.4.1 (unknown)
O         1.07015391331798   -0.01769828395654    0.04981203402603
H         2.02952514441169   -0.00813780275851    0.03338237327689
H         0.76845094227033    0.44031608671506   -0.73728440730292
