20
# ORCA MD Step 0
C   0.2786794812  -1.3668316261  0.0000000000
C   1.3230304159  -0.4417357520  0.0000000000
C   1.0443450647  0.9248497841  0.0000000000
C   -0.2786794812  1.3668316261  0.0000000000
C   -1.3230304159  0.4417357520  0.0000000000
C   -1.0443450647  -0.9248497841  0.0000000000
H   2.3659544406  -0.7903772635  0.0000000000
H   1.8674609484  1.6540799774  0.0000000000
H   -2.3659544406  0.7903772635  0.0000000000
H   -1.8674609484  -1.6540799774  0.0000000000
C   -0.5865916926  2.8758993229  0.0000000000
C   0.3635018816  3.8007642170  0.0000000000
H   -1.6564776874  3.1239431340  0.0000000000
H   0.1442956006  4.8769323718  0.0000000000
H   1.4333878864  3.5527204059  0.0000000000
C   0.5865916926  -2.8758993229  0.0000000000
C   -0.3635018816  -3.8007642170  0.0000000000
H   1.6564776874  -3.1239431340  0.0000000000
H   -0.1442956006  -4.8769323718  0.0000000000
H   -1.4333878864  -3.5527204059  0.0000000000
20
# ORCA MD Step 1
C   0.2761078895  -1.3654140227  0.0012051264
C   1.3199165192  -0.4409196142  0.0017344751
C   1.0434731212  0.9213542722  -0.0034041908
C   -0.2814321479  1.3650255953  -0.0017178724
C   -1.3281500019  0.4418584007  0.0013685370
C   -1.0460917342  -0.9249276345  -0.0018553791
H   2.3503085435  -0.8013292741  0.0018298107
H   1.8926677601  1.6606818313  -0.0167456084
H   -2.3817590382  0.8012094814  0.0151440593
H   -1.8569715254  -1.6535519942  0.0010640918
C   -0.5862711404  2.8737169498  -0.0001138422
C   0.3647209810  3.7986925642  0.0002564822
H   -1.6469641691  3.1225137068  0.0025849107
H   0.1285882352  4.8786831897  -0.0097552235
H   1.4417906549  3.5452720003  -0.0081800597
C   0.5886728630  -2.8739260530  -0.0002103413
C   -0.3589500370  -3.8022583309  0.0032490983
H   1.6605533123  -3.1322177966  -0.0137295132
H   -0.1482190160  -4.8728602760  0.0221638101
H   -1.4319910695  -3.5416029953  0.0051116289
20
# ORCA MD Step 2
C   0.2736693413  -1.3647720379  0.0023976980
C   1.3170301658  -0.4400545780  0.0034634348
C   1.0430967918  0.9180692801  -0.0068225175
C   -0.2842923631  1.3639910530  -0.0034311931
C   -1.3336694359  0.4419429113  0.0027494390
C   -1.0480818069  -0.9249214031  -0.0036998629
H   2.3356325588  -0.8124215862  0.0036544646
H   1.9148764430  1.6645582360  -0.0333438833
H   -2.3956190176  0.8113453869  0.0301494855
H   -1.8473664310  -1.6532440218  0.0021057670
C   -0.5859093460  2.8709265953  -0.0002243142
C   0.3661683169  3.7970111080  0.0004908085
H   -1.6387803358  3.1219040029  0.0051576270
H   0.1130988813  4.8792688013  -0.0193921040
H   1.4486153582  3.5383609707  -0.0162796027
C   0.5908625940  -2.8714156480  -0.0004345941
C   -0.3546943207  -3.8039679145  0.0065186562
H   1.6641945139  -3.1406003504  -0.0272801694
H   -0.1515112166  -4.8694910253  0.0441329241
H   -1.4293653373  -3.5309118580  0.0102694827
20
# ORCA MD Step 3
C   0.2713632776  -1.3648938977  0.0035652418
C   1.3143082591  -0.4391893564  0.0051817945
C   1.0433436458  0.9151778004  -0.0102727025
C   -0.2872352326  1.3637096826  -0.0051357558
C   -1.3396558338  0.4420413065  0.0041567186
C   -1.0502523690  -0.9247739691  -0.0055228693
H   2.3230249836  -0.8237365854  0.0054692208
H   1.9320164037  1.6642169296  -0.0496029460
H   -2.4061995512  0.8201573743  0.0448505964
H   -1.8397347329  -1.6539604064  0.0031075977
C   -0.5854028135  2.8675368693  -0.0003284070
C   0.3678471150  3.7957327051  0.0006798310
H   -1.6329833723  3.1223265898  0.0077107352
H   0.0983814612  4.8779754088  -0.0287854944
H   1.4530329681  3.5324453300  -0.0242119793
C   0.5931869225  -2.8684428285  -0.0006871101
C   -0.3508031361  -3.8057552344  0.0098264729
H   1.6669319867  -3.1486415883  -0.0404661892
H   -0.1539518287  -4.8676671469  0.0657450475
H   -1.4249780865  -3.5210330694  0.0155177548
20
# ORCA MD Step 4
C   0.2691861429  -1.3657496091  0.0046955265
C   1.3117039355  -0.4383793529  0.0068848333
C   1.0442701910  0.9128085086  -0.0137731364
C   -0.2902335858  1.3641406720  -0.0068276487
C   -1.3461258166  0.4421984049  0.0056043582
C   -1.0525518323  -0.9244457876  -0.0073140403
H   2.3133182211  -0.8352847661  0.0072694911
H   1.9427637857  1.6588275370  -0.0653204711
H   -2.4126757020  0.8271853014  0.0590744646
H   -1.8349474842  -1.6563262784  0.0040555220
C   -0.5846748082  2.8635844937  -0.0004233174
C   0.3697289428  3.7948429826  0.0008008622
H   -1.6302294999  3.1238883337  0.0102391170
H   0.0849156961  4.8743758601  -0.0378118995
H   1.4545743735  3.5278828255  -0.0318926328
C   0.5956538376  -2.8650982734  -0.0009818709
C   -0.3473053725  -3.8075014098  0.0131881882
H   1.6684158684  -3.1559124128  -0.0531023412
H   -0.1553857532  -4.8679573237  0.0868598326
H   -1.4185908603  -3.5122901360  0.0208995479
20
# ORCA MD Step 5
C   0.2671317678  -1.3672929822  0.0057767413
C   1.3091980280  -0.4376881913  0.0085681071
C   1.0458639963  0.9110358051  -0.0173404234
C   -0.2932580689  1.3652216676  -0.0085032091
C   -1.3530418882  0.4424484862  0.0071045902
C   -1.0549538129  -0.9239265117  -0.0090629876
H   2.3069392757  -0.8469489127  0.0090505163
H   1.9465293810  1.6481904661  -0.0803120835
H   -2.4147820788  0.8321662698  0.0726615356
H   -1.8334996293  -1.6606371927  0.0049350647
C   -0.5836895027  2.8591357015  -0.0005061655
C   0.3717547431  3.7942998936  0.0008332170
H   -1.6306319894  3.1265540506  0.0127360150
H   0.0730776595  4.8683732165  -0.0463587051
H   1.4531721197  3.5249124519  -0.0392477499
C   0.5982504095  -2.8614836661  -0.0013315541
C   -0.3441874777  -3.8091212301  0.0166185112
H   1.6684682685  -3.1620295365  -0.0650134315
H   -0.1557402696  -4.8705340801  0.1073398591
H   -1.4102936157  -3.5049193339  0.0264581422
20
# ORCA MD Step 6
C   0.2651916830  -1.3694638398  0.0067976790
C   1.3068037471  -0.4371872818  0.0102273380
C   1.0480464247  0.9098793204  -0.0209872173
C   -0.2962773077  1.3668707163  -0.0101589949
C   -1.3603128466  0.4428126343  0.0086663081
C   -1.0574647528  -0.9232413413  -0.0107589842
H   2.3038506739  -0.8584539957  0.0108070641
H   1.9434468419  1.6327090893  -0.0944359852
H   -2.4128217445  0.8350501945  0.0854848723
H   -1.8354243149  -1.6667716751  0.0057267780
C   -0.5824563615  2.8542850958  -0.0005737166
C   0.3738385330  3.7940357376  0.0007596190
H   -1.6337374784  3.1301347645  0.0151892073
H   0.0631183957  4.8602106902  -0.0543326937
H   1.4491640773  3.5236456209  -0.0462220393
C   0.6009422478  -2.8577065824  -0.0017466338
C   -0.3413953421  -3.8105705880  0.0201325892
H   1.6671119873  -3.1666767293  -0.0760440652
H   -0.1550271915  -4.8751334509  0.1270306327
H   -1.4005005232  -3.4990550779  0.0322382836
20
# ORCA MD Step 7
C   0.2633552685  -1.3721902309  0.0077479052
C   1.3045630827  -0.4369523031  0.0118582763
C   1.0506733262  0.9093012631  -0.0247200101
C   -0.2992581297  1.3689891019  -0.0117917743
C   -1.3677972042  0.4432965654  0.0102936948
C   -1.0601225571  -0.9224492043  -0.0123907693
H   2.3035899778  -0.8693770137  0.0125332330
H   1.9343900098  1.6133860665  -0.1076177626
H   -2.4076454231  0.8360041821  0.0974669059
H   -1.8403106797  -1.6742014249  0.0064030173
C   -0.5810237382  2.8491515199  -0.0006222570
C   0.3758732825  3.7939612041  0.0005672878
H   -1.6386297773  3.1343066685  0.0175789884
H   0.0551515148  4.8504513602  -0.0616666320
H   1.4432612471  3.5240662375  -0.0527845543
C   0.6036750785  -2.8538756933  -0.0022346500
C   -0.3388407638  -3.8118448957  0.0237468121
H   1.6645752561  -3.1696199981  -0.0860670891
H   -0.1533296599  -4.8811103182  0.1457484423
H   -1.3899074790  -3.4947273584  0.0382871395
20
# ORCA MD Step 8
C   0.2616097265  -1.3753906187  0.0086178992
C   1.3025364480  -0.4370568885  0.0134565344
C   1.0535347143  0.9092031871  -0.0285367439
C   -0.3021659229  1.3714649485  -0.0133985301
C   -1.3753102183  0.4438894799  0.0119852260
C   -1.0629869944  -0.9216331175  -0.0139465991
H   2.3053913786  -0.8791960225  0.0142224293
H   1.9210051443  1.5918283921  -0.1198769936
H   -2.4005924531  0.8354016002  0.1085917405
H   -1.8474162767  -1.6820960868  0.0069276861
C   -0.5794648180  2.8438713552  -0.0006477017
C   0.3777390745  3.7939712306  0.0002485089
H   -1.6441223907  3.1386558665  0.0198788213
H   0.0491521146  4.8399267945  -0.0683227575
H   1.4364750878  3.5260421119  -0.0589312761
C   0.6063782366  -2.8500965853  -0.0027997487
C   -0.3364121466  -3.8129696820  0.0274786328
H   1.6612729826  -3.1707152675  -0.0949893934
H   -0.1507776674  -4.8875705261  0.1632815138
H   -1.3794095927  -3.4918735724  0.0446544630
20
# ORCA MD Step 9
C   0.2599399304  -1.3789760329  0.0093991573
C   1.3007891938  -0.4375651508  0.0150174037
C   1.0563584557  0.9094268739  -0.0324246716
C   -0.3049652854  1.3741774504  -0.0149764660
C   -1.3826364481  0.4445651166  0.0137333910
C   -1.0661255667  -0.9208861208  -0.0154145569
H   2.3083481379  -0.8873632876  0.0158675522
H   1.9056967583  1.5702100948  -0.1313508041
H   -2.3933692476  0.8337853236  0.1189089150
H   -1.8558312550  -1.6894837779  0.0072591258
C   -0.5778610807  2.8385902893  -0.0006459150
C   0.3793138542  3.7939526843  -0.0001995395
H   -1.6489775292  3.1427361141  0.0220583326
H   0.0449706075  4.8296509222  -0.0742919170
H   1.4299970995  3.5293515138  -0.0646829109
C   0.6089699507  -2.8464684463  -0.0034425628
C   -0.3339887814  -3.8139865760  0.0313454736
H   1.6577649275  -3.1699073165  -0.1027540238
H   -0.1475187375  -4.8935390494  0.1794040305
H   -1.3699791677  -3.4903662959  0.0513913962
20
# ORCA MD Step 10
C   0.2583281890  -1.3828523109  0.0100842529
C   1.2993786682  -0.4385252057  0.0165356839
C   1.0588271380  0.9097670567  -0.0363597830
C   -0.3076211879  1.3770013121  -0.0165230003
C   -1.3895499401  0.4452864300  0.0155256324
C   -1.0695991481  -0.9202970324  -0.0167830244
H   2.3115737507  -0.8933828812  0.0174613925
H   1.8914567118  1.5511093105  -0.1422991454
H   -2.3878377234  0.8317927868  0.1285226290
H   -1.8646443012  -1.6954179141  0.0073550119
C   -0.5762874931  2.8334546604  -0.0006131614
C   0.3804867558  3.7937940118  -0.0007758934
H   -1.6521011693  3.1461265746  0.0240876126
H   0.0423649377  4.8206959651  -0.0795873444
H   1.4250280376  3.5337263870  -0.0700766026
C   0.6113642773  -2.8430816244  -0.0041604788
C   -0.3314574253  -3.8149383129  0.0353631631
H   1.6546924735  -3.1672194601  -0.1093379722
H   -0.1436898353  -4.8981231828  0.1938981290
H   -1.3625138523  -3.4900551000  0.0585474101
20
# ORCA MD Step 11
C   0.2567543101  -1.3869220640  0.0106668583
C   1.2983445026  -0.4399648595  0.0180055290
C   1.0606192985  0.9100031683  -0.0403099622
C   -0.3101004973  1.3798119775  -0.0180357399
C   -1.3958424393  0.4460139473  0.0173469191
C   -1.0734507056  -0.9199392449  -0.0180411989
H   2.3143270707  -0.8968740042  0.0189971828
H   1.8814066746  1.5371285593  -0.1530660819
H   -2.3857104649  0.8300405005  0.1375617512
H   -1.8730746792  -1.6991123987  0.0071776203
C   -0.5748022391  2.8286034007  -0.0005465771
C   0.3811721255  3.7933959863  -0.0014778471
H   -1.6526792909  3.1484787239  0.0259415052
H   0.0410488046  4.8140426006  -0.0842329625
H   1.4225787527  3.5389047354  -0.0751517252
C   0.6134793476  -2.8400165866  -0.0049482772
C   -0.3287288225  -3.8158555904  0.0395444365
H   1.6526953875  -3.1627339013  -0.1147453562
H   -0.1393944847  -4.9006419022  0.2065772800
H   -1.3576767381  -3.4908152797  0.0661652304
20
# ORCA MD Step 12
C   0.2551957139  -1.3910870255  0.0111417299
C   1.2977022148  -0.4418901934  0.0194203651
C   1.0614762594  0.9099514978  -0.0442435173
C   -0.3123739543  1.3824899996  -0.0195124257
C   -1.4013552189  0.4467169032  0.0191837453
C   -1.0776976970  -0.9198632482  -0.0191795391
H   2.3161009731  -0.8976165271  0.0204693013
H   1.8780325832  1.5302956387  -0.1639781541
H   -2.3881971759  0.8289854907  0.1461327476
H   -1.8805623788  -1.7000349607  0.0066983609
C   -0.5734400784  2.8241607918  -0.0004446072
C   0.3813223242  3.7926835546  -0.0023035680
H   -1.6502669164  3.1495521761  0.0276034485
H   0.0407509886  4.8104168668  -0.0882479658
H   1.4232726306  3.5446817879  -0.0799325714
C   0.6152461303  -2.8373432927  -0.0057990727
C   -0.3257510512  -3.8167478519  0.0438978366
H   1.6523205387  -3.1565668541  -0.1189972574
H   -0.1346867682  -4.9007127727  0.2173065968
H   -1.3557666569  -3.4925895193  0.0742744628
20
# ORCA MD Step 13
C   0.2536278554  -1.3952503592  0.0115046709
C   1.2974400883  -0.4442859985  0.0207728545
C   1.0612732871  0.9095195373  -0.0481411188
C   -0.3144179272  1.3849251187  -0.0209508620
C   -1.4060053100  0.4473828013  0.0210283896
C   -1.0823282114  -0.9200926060  -0.0201900950
H   2.3166704999  -0.8955748835  0.0218740084
H   1.8823620170  1.5314432132  -0.1752026786
H   -2.3957114748  0.8288091659  0.1542695526
H   -1.8868184680  -1.6979587531  0.0059009299
C   -0.5722092527  2.8202304521  -0.0003073422
C   0.3809353465  3.7916164082  -0.0032545565
H   -1.6448302462  3.1492376459  0.0290683615
H   0.0412693270  4.8101542527  -0.0916314986
H   1.4272105853  3.5509416644  -0.0844132229
C   0.6166165485  -2.8351210732  -0.0067053737
C   -0.3225164575  -3.8175990051  0.0484271488
H   1.6539341314  -3.1488430874  -0.1221201285
H   -0.1295625274  -4.8982954588  0.2260168258
H   -1.3566544710  -3.4954086610  0.0828853550
20
# ORCA MD Step 14
C   0.2520249034  -1.3993189941  0.0117524877
C   1.2975186444  -0.4471169608  0.0220548815
C   1.0600539445  0.9087317693  -0.0520044971
C   -0.3162153574  1.3870196526  -0.0223488553
C   -1.4097956526  0.4480210508  0.0228816037
C   -1.0873000835  -0.9206224066  -0.0210666981
H   2.3161077952  -0.8909026906  0.0232100623
H   1.8935652074  1.5399232060  -0.1866446017
H   -2.4077588089  0.8293739830  0.1619020288
H   -1.8918449532  -1.6929808018  0.0047829097
C   -0.5710910542  2.8168907413  -0.0001367174
C   0.3800549449  3.7901959806  -0.0043370890
H   -1.6367529794  3.1475682902  0.0303444992
H   0.0425026789  4.8131281771  -0.0943524265
H   1.4339433366  3.5576583659  -0.0885502062
C   0.6175694657  -2.8333983060  -0.0076600122
C   -0.3190604839  -3.8183684596  0.0531313435
H   1.6576555351  -3.1396768750  -0.1241358385
H   -0.1239576341  -4.8936952981  0.2327105404
H   -1.3598060865  -3.4993836164  0.0919845767
20
# ORCA MD Step 15
C   0.2503606363  -1.4032059451  0.0118829572
C   1.2978724487  -0.4503289721  0.0232575328
C   1.0580032841  0.9077094788  -0.0558557832
C   -0.3177556096  1.3886911117  -0.0237041861
C   -1.4128046949  0.4486587689  0.0247524169
C   -1.0925424986  -0.9214196471  -0.0218050035
H   2.3147668176  -0.8839295378  0.0244790576
H   1.9092660015  1.5538563751  -0.1979542443
H   -2.4230580064  0.8302740391  0.1688586159
H   -1.8959294884  -1.6855125751  0.0033557639
C   -0.5700419178  2.8141918747  0.0000634477
C   0.3787632698  3.7884667383  -0.0055620829
H   -1.6268087137  3.1447187125  0.0314541135
H   0.0444502342  4.8187669075  -0.0963480871
H   1.4425615865  3.5648667582  -0.0922658654
C   0.6181132333  -2.8322113861  -0.0086566996
C   -0.3154530394  -3.8189971560  0.0580049871
H   1.6633285001  -3.1291649735  -0.1250562993
H   -0.1177533793  -4.8875281839  0.2374595682
H   -1.3643847166  -3.5046713979  0.1015344635
20
# ORCA MD Step 16
C   0.2486094847  -1.4068325661  0.0118948118
C   1.2984144634  -0.4538509254  0.0243710781
C   1.0553794727  0.9066197864  -0.0597284139
C   -0.3190335187  1.3898740033  -0.0250146189
C   -1.4151604836  0.4493308988  0.0266552436
C   -1.0979601070  -0.9224257542  -0.0224023781
H   2.3132358903  -0.8751301857  0.0256854060
H   1.9263346718  1.5707395305  -0.2086350093
H   -2.4398389372  0.8309540849  0.1749010314
H   -1.8996135640  -1.6762418508  0.0016431645
C   -0.5689985987  2.8121551570  0.0002875967
C   0.3771685125  3.7865110994  -0.0069434298
H   -1.6160929275  3.1409887361  0.0324325890
H   0.0471802472  4.8261549988  -0.0975326832
H   1.4518723910  3.5726163999  -0.0954611621
C   0.6182841601  -2.8315827972  -0.0096900698
C   -0.3117850304  -3.8194177881  0.0630391407
H   1.6705378257  -3.1173936543  -0.1248843196
H   -0.1107894262  -4.8806452039  0.2403930140
H   -1.3694011559  -3.5114273072  0.1114761160
20
# ORCA MD Step 17
C   0.2467477326  -1.4101305625  0.0117877389
C   1.2990435474  -0.4575977853  0.0253849726
C   1.0524453259  0.9056245749  -0.0636560247
C   -0.3200482029  1.3905211469  -0.0262779400
C   -1.4170098946  0.4500690076  0.0286057341
C   -1.1034402078  -0.9235620642  -0.0228576460
H   2.3122517129  -0.8650755685  0.0268359591
H   1.9416788621  1.5880518022  -0.2181749831
H   -2.4561945090  0.8308456067  0.1797741077
H   -1.9036266966  -1.6660597623  -0.0003223962
C   -0.5678875440  2.8107747038  0.0005287948
C   0.3753908685  3.7844390560  -0.0084953976
H   -1.6059011085  3.1367674597  0.0333254961
H   0.0507809952  4.8341907780  -0.0978124075
H   1.4606087936  3.5809249758  -0.0980334508
C   0.6181412510  -2.8315186709  -0.0107552380
C   -0.3081532758  -3.8195681208  0.0682227779
H   1.6786673736  -3.1044565982  -0.1236202162
H   -0.1028848142  -4.8740160686  0.2416761191
H   -1.3738731943  -3.5197579012  0.1217356109
20
# ORCA MD Step 18
C   0.2447544216  -1.4130440825  0.0115623822
C   1.2996548282  -0.4614757062  0.0262879370
C   1.0494245169  0.9048488237  -0.0676645167
C   -0.3208023029  1.3906033417  -0.0274919959
C   -1.4184921943  0.4508928371  0.0306169192
C   -1.1088630885  -0.9247386462  -0.0231706835
H   2.3125815429  -0.8543713866  0.0279394906
H   1.9527424766  1.6036456215  -0.2261416803
H   -2.4703785990  0.8294759768  0.1832519249
H   -1.9087808727  -1.6559500339  -0.0025044579
C   -0.5666381531  2.8100218748  0.0007792725
C   0.3735501904  3.7823757127  -0.0102298883
H   -1.5975582041  3.1324785913  0.0341835818
H   0.0553123726  4.8417531643  -0.0971025244
H   1.4676167542  3.5897455805  -0.0998941374
C   0.6177582681  -2.8320058959  -0.0118470535
C   -0.3046464312  -3.8194061037  0.0735445941
H   1.6869890002  -3.0904781186  -0.1212722770
H   -0.0938666265  -4.8685789552  0.2414828198
H   -1.3769651239  -3.5296853451  0.1322320961
20
# ORCA MD Step 19
C   0.2426124364  -1.4155310557  0.0112203417
C   1.3001529040  -0.4653882723  0.0270680652
C   1.0464834217  0.9043676119  -0.0717683280
C   -0.3213014627  1.3901092925  -0.0286547359
C   -1.4197208706  0.4518054309  0.0326965170
C   -1.1141158411  -0.9258666198  -0.0233419798
H   2.3148727058  -0.8435876368  0.0290059164
H   1.9577068848  1.6159152205  -0.2322269941
H   -2.4810104944  0.8265368073  0.1851706652
H   -1.9158247051  -1.6468429874  -0.0048681901
C   -0.5651999904  2.8098518887  0.0010311471
C   0.3717556813  3.7804481907  -0.0121541759
H   -1.5921970376  3.1285086557  0.0350554662
H   0.0607671378  4.8478546805  -0.0953421158
H   1.4720026698  3.5989497565  -0.1009828180
C   0.6172147345  -2.8330103805  -0.0129592753
C   -0.3013333421  -3.8189244190  0.0789948471
H   1.6947604443  -3.0756332891  -0.1178676554
H   -0.0836036886  -4.8650758602  0.2399671568
H   -1.3780900161  -3.5411287721  0.1428863111
20
# ORCA MD Step 20
C   0.2403092888  -1.4175640470  0.0107641614
C   1.3004651386  -0.4692429038  0.0277129903
C   1.0437279416  0.9042049278  -0.0759695875
C   -0.3215542386  1.3890447875  -0.0297642423
C   -1.4207731880  0.4527916768  0.0348454749
C   -1.1191074591  -0.9268717604  -0.0233722585
H   2.3195037878  -0.8331958689  0.0300454031
H   1.9555183485  1.6238328403  -0.2362586182
H   -2.4871897823  0.8219151216  0.1854467326
H   -1.9252788883  -1.6394587866  -0.0073851650
C   -0.5635596520  2.8102112313  0.0012771718
C   0.3700983585  3.7787742477  -0.0142694250
H   -1.5905383972  3.1251359454  0.0359797051
H   0.0670483376  4.8517571135  -0.0925040427
H   1.4732291824  3.6083261853  -0.1012764514
C   0.6165871697  -2.8344765118  -0.0140838819
C   -0.2982545841  -3.8181614767  0.0845665922
H   1.7013186691  -3.0601605970  -0.1134613649
H   -0.0720395164  -4.8639104532  0.2372420793
H   -1.3769726907  -3.5539020463  0.1536285649
20
# ORCA MD Step 21
C   0.2378376522  -1.4191304138  0.0101973011
C   1.3005517081  -0.4729557455  0.0282100871
C   1.0412056424  0.9043365943  -0.0802584965
C   -0.3215722218  1.3874315322  -0.0308187508
C   -1.4216851575  0.4538189645  0.0370574607
C   -1.1237817363  -0.9277059646  -0.0232623075
H   2.3264752777  -0.8235290991  0.0310673529
H   1.9458561278  1.6269376157  -0.2381972959
H   -2.4885502925  0.8157002701  0.1840835962
H   -1.9372940159  -1.6341800434  -0.0100355155
C   -0.5617520933  2.8110438771  0.0015113250
C   0.3686457236  3.7774531047  -0.0165700253
H   -1.5927344282  3.1224815714  0.0369783840
H   0.0739614928  4.8530479919  -0.0885994839
H   1.4711669290  3.6175901646  -0.1007936425
C   0.6159414891  -2.8363282970  -0.0152106320
C   -0.2954176360  -3.8172055164  0.0902557347
H   1.7061568020  -3.0443646166  -0.1081416930
H   -0.0592165169  -4.8650685022  0.2333730015
H   -1.3736748042  -3.5677253985  0.1644053727
20
# ORCA MD Step 22
C   0.2351956201  -1.4202317225  0.0095240943
C   1.3004092005  -0.4764539924  0.0285466983
C   1.0389074692  0.9046927005  -0.0846138690
C   -0.3213702552  1.3853057268  -0.0318166656
C   -1.4224498411  0.4548389278  0.0393189879
C   -1.1281238376  -0.9283529292  -0.0230130977
H   2.3353756853  -0.8147744389  0.0320793234
H   1.9291089073  1.6253294384  -0.2381325018
H   -2.4852777143  0.8081771036  0.1811709834
H   -1.9515788385  -1.6309956371  -0.0128064467
C   -0.5598616637  2.8122946992  0.0017290526
C   0.3674383393  3.7765585701  -0.0190436589
H   -1.5983321873  3.1205003503  0.0380544648
H   0.0812185340  4.8516810388  -0.0836774763
H   1.4661091453  3.6263998495  -0.0995945782
C   0.6153270557  -2.8384722297  -0.0163269126
C   -0.2927961620  -3.8161897925  0.0960597300
H   1.7089788293  -3.0286089165  -0.1020314966
H   -0.0452841674  -4.8681269903  0.2283886401
H   -1.3685832905  -3.5822478146  0.1751840311
20
# ORCA MD Step 23
C   0.2323867074  -1.4208824634  0.0087496922
C   1.3000665102  -0.4796757091  0.0287103747
C   1.0367672396  0.9051578771  -0.0890034796
C   -0.3209666698  1.3827164642  -0.0327565752
C   -1.4230181952  0.4557898077  0.0416100384
C   -1.1321580789  -0.9288263057  -0.0226261365
H   2.3454364623  -0.8069969962  0.0330860186
H   1.9063809351  1.6196865880  -0.2362807152
H   -2.4781003874  0.7998097506  0.1768780714
H   -1.9674278191  -1.6295352228  -0.0156877073
C   -0.5580116776  2.8139097277  0.0019270893
C   0.3664884846  3.7761344942  -0.0216720058
H   -1.6063724170  3.1190137751  0.0391938025
H   0.0884510868  4.8479834860  -0.0778201959
H   1.4587505341  3.6343769742  -0.0977769803
C   0.6147726312  -2.8408016274  -0.0174178516
C   -0.2903338338  -3.8152793609  0.1019753705
H   1.7097296735  -3.0133009730  -0.0952856060
H   -0.0304880906  -4.8723492360  0.2223047967
H   -1.3623605659  -3.5970775109  0.1859542354
20
# ORCA MD Step 24
C   0.2294196457  -1.4211081888  0.0078800037
C   1.2995744387  -0.4825682211  0.0286891224
C   1.0346605973  0.9055704900  -0.0933845381
C   -0.3203835289  1.3797240343  -0.0336372740
C   -1.4233032292  0.4565996069  0.0439052483
C   -1.1359377024  -0.9291616013  -0.0221038909
H   2.3556583995  -0.8001829168  0.0340885352
H   1.8795086381  1.6112947583  -0.2329826487
H   -2.4682441338  0.7912138231  0.1714399392
H   -1.9838391917  -1.6291787833  -0.0186660771
C   -0.5563458042  2.8158343264  0.0021029428
C   0.3657815982  3.7761929202  -0.0244320280
H   -1.6155865829  3.1177702402  0.0403709018
H   0.0952324330  4.8426287555  -0.0711347334
H   1.4501244646  3.6411313611  -0.0954681398
C   0.6142844422  -2.8432019783  -0.0184666535
C   -0.2879528159  -3.8146524499  0.1079965141
H   1.7085994688  -2.9988713987  -0.0880849848
H   -0.0151426966  -4.8768358335  0.2151520722
H   -1.3558537604  -3.6118179536  0.1967256685
20
# ORCA MD Step 25
C   0.2263080300  -1.4209432583  0.0069216379
C   1.2989922274  -0.4850865230  0.0284716648
C   1.0324086941  0.9057248938  -0.0977052316
C   -0.3196469332  1.3763982278  -0.0344577892
C   -1.4231895766  0.4571906532  0.0461758507
C   -1.1395301773  -0.9294052394  -0.0214500980
H   2.3649716094  -0.7942857898  0.0350840212
H   1.8510264398  1.6020396676  -0.2286885265
H   -2.4573261719  0.7831101963  0.1651351391
H   -1.9996828940  -1.6292008259  -0.0217211366
C   -0.5550069440  2.8180109403  0.0022542294
C   0.3652814699  3.7767156869  -0.0272977549
H   -1.6246272277  3.1165104274  0.0415563207
H   0.1011089029  4.8365682246  -0.0637422853
H   1.4414884609  3.6462892205  -0.0928131916
C   0.6138466213  -2.8455567590  -0.0194551043
C   -0.2855663737  -3.8144805202  0.1141126036
H   1.7060007580  -2.9857499140  -0.0806285205
H   0.0004057823  -4.8806898388  0.2069985204
H   -1.3499646001  -3.6261056801  0.2075207056
20
# ORCA MD Step 26
C   0.2230698127  -1.4204283881  0.0058818589
C   1.2983743351  -0.4871928203  0.0280477388
C   1.0297952985  0.9053842417  -0.1019087111
C   -0.3187875387  1.3728166323  -0.0352174020
C   -1.4225508856  0.4574862158  0.0483924847
C   -1.1430021746  -0.9296042378  -0.0206698625
H   2.3723903839  -0.7892646489  0.0360657888
H   1.8239799681  1.5942759748  -0.2239155061
H   -2.4471584556  0.7762528946  0.1582531657
H   -2.0138702303  -1.6289076741  -0.0248235802
C   -0.5541185463  2.8203775682  0.0023780490
C   0.3649397909  3.7776603670  -0.0302423766
H   -1.6322761382  3.1150210302  0.0427237737
H   0.1056414174  4.8309154675  -0.0557664012
H   1.4341532049  3.6495250309  -0.0899606450
C   0.6134242589  -2.8477530856  -0.0203642025
C   -0.2830940947  -3.8149106945  0.1203084358
H   1.7025188506  -2.9743405403  -0.0731235438
H   0.0158182670  -4.8831621701  0.1979620380
H   -1.3454935090  -3.6396444605  0.2183624601
20
# ORCA MD Step 27
C   0.2197269382  -1.4196083123  0.0047685492
C   1.2977598718  -0.4888575140  0.0274084259
C   1.0266064379  0.9043126877  -0.1059405624
C   -0.3178411063  1.3690633800  -0.0359156628
C   -1.4212757216  0.4574193776  0.0505286199
C   -1.1464072751  -0.9297987685  -0.0197695579
H   2.3771358947  -0.7851083409  0.0370238007
H   1.8014769605  1.5904670913  -0.2191648321
H   -2.4394533212  0.7713309182  0.1510552571
H   -2.0254930463  -1.6277435176  -0.0279361719
C   -0.5537710115  2.8228677927  0.0024705009
C   0.3647087820  3.7789702977  -0.0332402571
H   -1.6375935795  3.1131682046  0.0438555047
H   0.1084559292  4.8267824733  -0.0473226989
H   1.4292665562  3.6505956135  -0.0870473518
C   0.6129691051  -2.8496873033  -0.0211747824
C   -0.2804766853  -3.8160524637  0.1265650981
H   1.6988303118  -2.9649976092  -0.0657760428
H   0.0307976156  -4.8837567497  0.1882112270
H   -1.3429844083  -3.6522301027  0.2292600253
20
# ORCA MD Step 28
C   0.2163047402  -1.4185297284  0.0035901972
C   1.2971651624  -0.4900612975  0.0265465198
C   1.0226925466  0.9023292956  -0.1097588615
C   -0.3168492469  1.3652275684  -0.0365523645
C   -1.4192982287  0.4569428704  0.0525637578
C   -1.1497772849  -0.9300176149  -0.0187565643
H   2.3787208379  -0.7818482099  0.0379454395
H   1.7859729606  1.5925687119  -0.2148096278
H   -2.4354697658  0.7688567915  0.1437379059
H   -2.0339195931  -1.6253585480  -0.0310164832
C   -0.5540132232  2.8254116932  0.0025263904
C   0.3645546523  3.7805879028  -0.0362683020
H   -1.6400164296  3.1109145880  0.0449461214
H   0.1092968356  4.8250878974  -0.0385137357
H   1.4275941247  3.6493731237  -0.0841867686
C   0.6124273936  -2.8512693978  -0.0218681068
C   -0.2776871757  -3.8179698811  0.1328616046
H   1.6956039443  -2.9580057576  -0.0587822947
H   0.0451163667  -4.8822942164  0.1779572702
H   -1.3426124566  -3.6637606908  0.2401951226
20
# ORCA MD Step 29
C   0.2128313459  -1.4172395697  0.0023558959
C   1.2965797177  -0.4907973823  0.0254568486
C   1.0180315399  0.8993669788  -0.1133424789
C   -0.3158596676  1.3614017256  -0.0371275018
C   -1.4166243526  0.4560373406  0.0544852154
C   -1.1531172017  -0.9302761168  -0.0176389286
H   2.3769950272  -0.7795615838  0.0388164262
H   1.7785377304  1.6013471914  -0.2110032832
H   -2.4357080858  0.7690729919  0.1364133883
H   -2.0388504472  -1.6216445855  -0.0340206821
C   -0.5548484669  2.8279377097  0.0025390991
C   0.3644670783  3.7824677671  -0.0393061971
H   -1.6394064620  3.1083227219  0.0460048145
H   0.1080728062  4.8263767497  -0.0294313491
H   1.4293568198  3.6458704563  -0.0814637278
C   0.6117486393  -2.8524266924  -0.0224262708
C   -0.2747352738  -3.8206787716  0.1391765998
H   1.6933922864  -2.9535647641  -0.0523228665
H   0.0586354090  -4.8789342196  0.1674393825
H   -1.3441463392  -3.6742319191  0.2511145191
20
# ORCA MD Step 30
C   0.2093370165  -1.4157836552  0.0010753406
C   1.2959653244  -0.4910727977  0.0241364486
C   1.0127556880  0.8955032955  -0.1166922719
C   -0.3149253506  1.3576799329  -0.0376412470
C   -1.4133427071  0.4547151162  0.0562876664
C   -1.1564032207  -0.9305756439  -0.0164249890
H   2.3721572513  -0.7783693308  0.0396218841
H   1.7785320090  1.6160213765  -0.2076702525
H   -2.4397779748  0.7719105805  0.1291166222
H   -2.0403420225  -1.6167460530  -0.0369077408
C   -0.5562337933  2.8303751952  0.0025005885
C   0.3644610182  3.7845854795  -0.0423354374
H   -1.6360597878  3.1055492927  0.0470562996
H   0.1048821776  4.8307039011  -0.0201662437
H   1.4341816540  3.6402515122  -0.0789369542
C   0.6108936765  -2.8531066713  -0.0228323667
C   -0.2716637446  -3.8241484392  0.1454896352
H   1.6925351377  -2.9517800967  -0.0465596854
H   0.0713124211  -4.8741594418  0.1569069003
H   -1.3469977114  -3.6837206053  0.2619312588
20
# ORCA MD Step 31
C   0.2058534198  -1.4142056975  -0.0002411926
C   1.2952582195  -0.4909082107  0.0225845265
C   1.0071225093  0.8909413575  -0.1198242318
C   -0.3141023758  1.3541554351  -0.0380939780
C   -1.4096146140  0.4530180748  0.0579707013
C   -1.1595834525  -0.9309041178  -0.0151230032
H   2.3647350277  -0.7784287653  0.0403475079
H   1.7839235427  1.6344834616  -0.2045886866
H   -2.4465031075  0.7770166356  0.1218348319
H   -2.0388018293  -1.6110506511  -0.0396435451
C   -0.5580826229  2.8326575278  0.0024015237