----- GAMESS execution script -----
This job is running on host pc12759.ch.liv.ac.uk
under operating system Linux at Mon Jul 18 09:15:59 BST 2005
Available scratch disk space (Kbyte units) at beginning of the job is
Filesystem           1k-blocks      Used Available Use% Mounted on
/dev/sda6              2063504     75536   1883148   4% /tmp

 Distributed Data Interface kickoff program.
 Initiating 1 compute processes on 1 nodes to run the following command:
 /usr/local/gamess1/gamess.00.x exam01 

          ******************************************************
          *         GAMESS VERSION = 22 NOV 2004 (R1)          *
          *             FROM IOWA STATE UNIVERSITY             *
          * M.W.SCHMIDT, K.K.BALDRIDGE, J.A.BOATZ, S.T.ELBERT, *
          *   M.S.GORDON, J.H.JENSEN, S.KOSEKI, N.MATSUNAGA,   *
          *          K.A.NGUYEN, S.J.SU, T.L.WINDUS,           *
          *       TOGETHER WITH M.DUPUIS, J.A.MONTGOMERY       *
          *         J.COMPUT.CHEM.  14, 1347-1363(1993)        *
          ******************* PC-UNIX VERSION ******************

     SINCE 1993, STUDENTS AND POSTDOCS WORKING AT IOWA STATE UNIVERSITY
     AND ALSO IN THEIR VARIOUS JOBS AFTER LEAVING ISU HAVE MADE IMPORTANT
     CONTRIBUTIONS TO THE CODE:
     IVANA ADAMOVIC, CHRISTINE AIKENS, ROB BELL, PRADIPTA BANDYOPADHYAY,
     BRETT BODE, GALINA CHABAN, WEI CHEN, CHEOL HO CHOI, PAUL DAY,
     TIM DUDLEY, DMITRI FEDOROV, GRAHAM FLETCHER, MARK FREITAG,
     KURT GLAESEMANN, GRANT MERRILL, HEATHER NETZLOFF, RYAN OLSON,
     MIKE PAK, JIM SHOEMAKER, TETSUYA TAKETSUGU, SIMON WEBB.

     ADDITIONAL CODE HAS BEEN PROVIDED BY COLLABORATORS IN OTHER GROUPS:
     IOWA STATE UNIVERSITY: JOE IVANIC, KLAUS RUEDENBERG
     UNIVERSITY OF TOKYO: KIMIHIKO HIRAO, HARUYUKI NAKANO, TAKAHITO
          NAKAJIMA, TAKAO TSUNEDA, MUNEAKI KAMIYA, SUSUMU YANAGISAWA,
          KIYOSHI YAGI
     ODENSE UNIVERSITY: FRANK JENSEN
     UNIVERSITY OF IOWA: VISVALDAS KAIRYS, HUI LI
     NATIONAL INST. OF STANDARDS AND TECHNOLOGY: WALT STEVENS, DAVID GARMER
     UNIVERSITY OF PISA: BENEDETTA MENNUCCI, JACOPO TOMASI
     UNIVERSITY OF MEMPHIS: HENRY KURTZ, PRAKASHAN KORAMBATH
     UNIVERSITY OF ALBERTA: MARIUSZ KLOBUKOWSKI
     UNIVERSITY OF NEW ENGLAND: MARK SPACKMAN
     MIE UNIVERSITY: HIROAKI UMEDA
     MICHIGAN STATE UNIVERSITY: KAROL KOWALSKI, PIOTR PIECUCH
     UNIVERSITY OF SILESIA: MONIKA MUSIAL, STANISLAW KUCHARSKI
     FACULTES UNIVERSITAIRES NOTRE-DAME DE LA PAIX:
          OLIVIER QUINET, BENOIT CHAMPAGNE
     UNIVERSITY OF CALIFORNIA - SANTA BARBARA: BERNARD KIRTMAN
     INSTITUTE FOR MOLECULAR SCIENCE: KAZUYA ISHIMURA AND SHIGERU NAGASE

 EXECUTION OF GAMESS BEGUN Mon Jul 18 09:15:59 2005

            ECHO OF THE FIRST FEW INPUT CARDS -
 INPUT CARD> $CONTRL SCFTYP=RHF RUNTYP=energy NPRINT=3 COORD=ZMT NZVAR=0 $END               
 INPUT CARD> $SYSTEM TIMLIM=2 MEMORY=100000 $END                                            
 INPUT CARD> $STATPT OPTTOL=1.0E-5  $END                                                    
 INPUT CARD> $BASIS  GBASIS=STO NGAUSS=2 $END                                               
 INPUT CARD> $GUESS  GUESS=HUCKEL $END                                                      
 INPUT CARD> $DATA                                                                          
 INPUT CARD>Methylene...1-A-1 state...RHF/STO-2G                                            
 INPUT CARD>Cnv  2                                                                          
 INPUT CARD>                                                                                
 INPUT CARD> c                                                                              
 INPUT CARD> h   1 hc2                                                                      
 INPUT CARD> h   1 hc3        2 hch3                                                        
 INPUT CARD>                                                                                
 INPUT CARD>hc2         1.090000                                                            
 INPUT CARD>hc3         1.090000                                                            
 INPUT CARD>hch3        110.000                                                             
 INPUT CARD> $END                                                                           

 ..... DONE SETTING UP THE RUN .....
     100000 WORDS OF MEMORY AVAILABLE

     BASIS OPTIONS
     -------------
     GBASIS=STO          IGAUSS=       2      POLAR=NONE    
     NDFUNC=       0     NFFUNC=       0     DIFFSP=       F
     NPFUNC=       0      DIFFS=       F


     RUN TITLE
     ---------
 Methylene...1-A-1 state...RHF/STO-2G                                            

 THE POINT GROUP OF THE MOLECULE IS CNV     
 THE ORDER OF THE PRINCIPAL AXIS IS     2

 YOUR FULLY SUBSTITUTED Z-MATRIX IS
 C   
 H      1   1.0900000
 H      1   1.0900000  2  110.0000

 THE MOMENTS OF INERTIA ARE (AMU-ANGSTROM**2)
 IXX=     0.675   IYY=     1.607   IZZ=     2.281

 ATOM      ATOMIC                      COORDINATES (BOHR)
           CHARGE         X                   Y                   Z
 C           6.0     0.0000000000        0.0000000000       -0.1699098334
 H           1.0    -1.6872904675        0.0000000000        1.0115436711
 H           1.0     1.6872904675        0.0000000000        1.0115436711

          INTERNUCLEAR DISTANCES (ANGS.)
          ------------------------------

                    C              H              H         

  1  C               0.0000000      1.0900000 *    1.0900000 *  
  2  H               1.0900000 *    0.0000000      1.7857515 *  
  3  H               1.0900000 *    1.7857515 *    0.0000000    

  * ... LESS THAN  3.000


     ATOMIC BASIS SET
     ----------------
 THE CONTRACTED PRIMITIVE FUNCTIONS HAVE BEEN UNNORMALIZED
 THE CONTRACTED BASIS FUNCTIONS ARE NOW NORMALIZED TO UNITY

 SHELL TYPE PRIMITIVE    EXPONENT          CONTRACTION COEFFICIENTS

 C         

   1   S    1            27.3850330      0.430128498301
   1   S    2             4.8745221      0.678913530502

   2   L    3             1.1367482      0.049471769201      0.511540707616
   2   L    4             0.2883094      0.963782408119      0.612819896119

 H         

   4   S    5             1.3097564      0.430128498301
   4   S    6             0.2331360      0.678913530502

 TOTAL NUMBER OF BASIS SET SHELLS             =    4
 NUMBER OF CARTESIAN GAUSSIAN BASIS FUNCTIONS =    7
 NUMBER OF ELECTRONS                          =    8
 CHARGE OF MOLECULE                           =    0
 SPIN MULTIPLICITY                            =    1
 NUMBER OF OCCUPIED ORBITALS (ALPHA)          =    4
 NUMBER OF OCCUPIED ORBITALS (BETA )          =    4
 TOTAL NUMBER OF ATOMS                        =    3
 THE NUCLEAR REPULSION ENERGY IS        6.1221376700

     $CONTRL OPTIONS
     ---------------
 SCFTYP=RHF          RUNTYP=ENERGY       EXETYP=RUN     
 MPLEVL=       0     CITYP =NONE         CCTYP =NONE    
 MULT  =       1     ICHARG=       0     NZVAR =       0     COORD =ZMT     
 ECP   =NONE         RELWFN=NONE         LOCAL =NONE         NUMGRD=       F
 ISPHER=      -1     NOSYM =       0     MAXIT =      30     UNITS =ANGS    
 PLTORB=       F     MOLPLT=       F     AIMPAC=       F     FRIEND=        
 NPRINT=       3     IREST =       0     GEOM  =INPUT   
 NORMF =       0     NORMP =       0     ITOL  =      20     ICUT  =       9
 INTTYP=BEST         GRDTYP=BEST         QMTTOL= 1.0E-06

     $SYSTEM OPTIONS
     ---------------
  REPLICATED MEMORY=      100000 WORDS (ON EVERY NODE).
 DISTRIBUTED MEMDDI=           0 MILLION WORDS IN AGGREGATE,
 MEMDDI DISTRIBUTED OVER   1 PROCESSORS IS           0 WORDS/PROCESSOR.
 TOTAL MEMORY REQUESTED ON EACH PROCESSOR=      100000 WORDS.
 TIMLIM=           2.00 MINUTES, OR     0.00 DAYS.
 PARALL= F  BALTYP=  NXTVAL  KDIAG=    0  COREFL= F

          ----------------
          PROPERTIES INPUT
          ----------------

     MOMENTS            FIELD           POTENTIAL          DENSITY
 IEMOM =       1   IEFLD =       0   IEPOT =       0   IEDEN =       0
 WHERE =COMASS     WHERE =NUCLEI     WHERE =NUCLEI     WHERE =NUCLEI  
 OUTPUT=BOTH       OUTPUT=BOTH       OUTPUT=BOTH       OUTPUT=BOTH    
 IEMINT=       0   IEFINT=       0                     IEDINT=       0
                                                       MORB  =       0
          EXTRAPOLATION IN EFFECT

     -------------------------------
     INTEGRAL TRANSFORMATION OPTIONS
     -------------------------------
     NWORD  =       0     CUTOFF = 1.0E-09
     MPTRAN =       0     DIRTRF =       F
     AOINTS =DUP     

          ----------------------
          INTEGRAL INPUT OPTIONS
          ----------------------
 NOPK  =       1 NORDER=       0 SCHWRZ=       F

   --- ENCODED Z MATRIX ---
 COORD  TYPE   I   J   K   L   M   N
    1      1    3   1
    2      1    2   1
    3      2    2   1   3

 THE DETERMINANT OF THE G MATRIX IS 10**(    -1)

     ------------------------------------------
     THE POINT GROUP IS CNV, NAXIS= 2, ORDER= 4
     ------------------------------------------

     DIMENSIONS OF THE SYMMETRY SUBSPACES ARE
 A1  =    4     A2  =    0     B1  =    2     B2  =    1

 ..... DONE SETTING UP THE RUN .....
 STEP CPU TIME =     0.02 TOTAL CPU TIME =        0.0 (    0.0 MIN)
 TOTAL WALL CLOCK TIME=        0.0 SECONDS, CPU UTILIZATION IS 100.00%

          ********************
          1 ELECTRON INTEGRALS
          ********************
 OVERLAP MATRIX

                      1          2          3          4          5

    1  C  1  S    1.000000
    2  C  1  S    0.270057   1.000000
    3  C  1  X    0.000000   0.000000   1.000000
    4  C  1  Y    0.000000   0.000000   0.000000   1.000000
    5  C  1  Z    0.000000   0.000000   0.000000   0.000000   1.000000
    6  H  2  S    0.059885   0.489326  -0.383208   0.000000   0.268325
    7  H  3  S    0.059885   0.489326   0.383208   0.000000   0.268325

                      6          7

    6  H  2  S    1.000000
    7  H  3  S    0.159500   1.000000
 BARE NUCLEUS HAMILTONIAN INTEGRALS (H=T+V)

                      1          2          3          4          5

    1  C  1  S  -18.234152
    2  C  1  S   -5.040416  -5.848767
    3  C  1  X    0.000000   0.000000  -4.617670
    4  C  1  Y    0.000000   0.000000   0.000000  -4.448883
    5  C  1  Z   -0.015855  -0.198699   0.000000   0.000000  -4.531638
    6  H  2  S   -1.137522  -2.503199   1.639512   0.000000  -1.200697
    7  H  3  S   -1.137522  -2.503199  -1.639512   0.000000  -1.200697

                      6          7

    6  H  2  S   -3.600488
    7  H  3  S   -0.792831  -3.600488
 KINETIC ENERGY INTEGRALS

                      1          2          3          4          5

    1  C  1  S   15.365290
    2  C  1  S    0.280189   0.453261
    3  C  1  X    0.000000   0.000000   1.431487
    4  C  1  Y    0.000000   0.000000   0.000000   1.431487
    5  C  1  Z    0.000000   0.000000   0.000000   0.000000   1.431487
    6  H  2  S   -0.004402   0.116803  -0.202381   0.000000   0.141708
    7  H  3  S   -0.004402   0.116803   0.202381   0.000000   0.141708

                      6          7

    6  H  2  S    0.734883
    7  H  3  S   -0.007009   0.734883
 ...... END OF ONE-ELECTRON INTEGRALS ......
 STEP CPU TIME =     0.00 TOTAL CPU TIME =        0.0 (    0.0 MIN)
 TOTAL WALL CLOCK TIME=        0.0 SECONDS, CPU UTILIZATION IS 100.00%

          -------------
          GUESS OPTIONS
          -------------
          GUESS =HUCKEL            NORB  =       0          NORDER=       0
          MIX   =       F          PRTMO =       F          PUNMO =       F
          TOLZ  = 1.0E-08          TOLE  = 1.0E-05
          SYMDEN=       F          PURIFY=       F

 INITIAL GUESS ORBITALS GENERATED BY HUCKEL   ROUTINE.
 HUCKEL GUESS REQUIRES      2569 WORDS.

 SYMMETRIES FOR INITIAL GUESS ORBITALS FOLLOW.   BOTH SET(S).
     4 ORBITALS ARE OCCUPIED (    1 CORE ORBITALS).
     2=A1       3=B1       4=A1       5=B2       6=B1       7=A1  
 ...... END OF INITIAL ORBITAL SELECTION ......
 STEP CPU TIME =     0.00 TOTAL CPU TIME =        0.0 (    0.0 MIN)
 TOTAL WALL CLOCK TIME=        0.0 SECONDS, CPU UTILIZATION IS 100.00%

                    ----------------------
                    AO INTEGRAL TECHNOLOGY
                    ----------------------
     S,P,L SHELL ROTATED AXIS INTEGRALS, REPROGRAMMED BY
        KAZUYA ISHIMURA (IMS) AND JOSE SIERRA (SYNSTAR).
     S,P,D,L SHELL ROTATED AXIS INTEGRALS PROGRAMMED BY
        KAZUYA ISHIMURA (INSTITUTE FOR MOLECULAR SCIENCE).
     S,P,D,F,G SHELL TO TOTAL QUARTET ANGULAR MOMENTUM SUM 5,
        ERIC PROGRAM BY GRAHAM FLETCHER (ELORET AND NASA ADVANCED
        SUPERCOMPUTING DIVISION, AMES RESEARCH CENTER).
     S,P,D,F,G,L SHELL GENERAL RYS QUADRATURE PROGRAMMED BY
        MICHEL DUPUIS (PACIFIC NORTHWEST NATIONAL LABORATORY).

          --------------------
          2 ELECTRON INTEGRALS
          --------------------

 THE -PK- OPTION IS OFF, THE INTEGRALS ARE NOT IN SUPERMATRIX FORM.
 STORING   15000 INTEGRALS/RECORD ON DISK, USING 12 BYTES/INTEGRAL.
 TWO ELECTRON INTEGRAL EVALUATION REQUIRES   59666 WORDS OF MEMORY.
 II,JST,KST,LST =  1  1  1  1 NREC =         1 INTLOC =    1
 II,JST,KST,LST =  2  1  1  1 NREC =         1 INTLOC =    2
 II,JST,KST,LST =  3  1  1  1 NREC =         1 INTLOC =   34
 II,JST,KST,LST =  4  1  1  1 NREC =         1 INTLOC =   34
 TOTAL NUMBER OF NONZERO TWO-ELECTRON INTEGRALS =                 141
          1 INTEGRAL RECORDS WERE STORED ON DISK FILE  8.
  ...... END OF TWO-ELECTRON INTEGRALS .....
 STEP CPU TIME =     0.14 TOTAL CPU TIME =        0.2 (    0.0 MIN)
 TOTAL WALL CLOCK TIME=        0.2 SECONDS, CPU UTILIZATION IS 100.00%

          --------------------------
                 RHF SCF CALCULATION
          --------------------------

     NUCLEAR ENERGY =         6.1221376700
     MAXIT =   30     NPUNCH=    2
     EXTRAP=T  DAMP=F  SHIFT=F  RSTRCT=F  DIIS=F  DEM=F  SOSCF=F
     DENSITY MATRIX CONV=  1.00E-05
     MEMORY REQUIRED FOR RHF STEP=     30441 WORDS.

 ITER EX DEM    TOTAL ENERGY       E CHANGE  DENSITY CHANGE    DIIS ERROR
   1  0  0      -37.172577283   -37.172577283   0.380764105   0.000000000
   2  1  0      -37.227975620    -0.055398337   0.131481807   0.000000000
   3  2  0      -37.231732248    -0.003756627   0.046548651   0.000000000
   4  3  0      -37.232193210    -0.000460963   0.016847695   0.000000000
   5  0  0      -37.232256854    -0.000063643   0.010114675   0.000000000
   6  1  0      -37.232267801    -0.000010947   0.000054437   0.000000000
   7  2  0      -37.232267801    -0.000000001   0.000017898   0.000000000
   8  3  0      -37.232267802     0.000000000   0.000006281   0.000000000

          -----------------
          DENSITY CONVERGED
          -----------------
     TIME TO FORM FOCK OPERATORS=       0.0 SECONDS (       0.0 SEC/ITER)
     TIME TO SOLVE SCF EQUATIONS=       0.0 SECONDS (       0.0 SEC/ITER)

 FINAL RHF ENERGY IS      -37.2322678015 AFTER   8 ITERATIONS

          ------------
          EIGENVECTORS
          ------------

                      1          2          3          4          5
                  -10.6188    -0.8205    -0.5149    -0.2795     0.2459
                     A1         A1         B1         A1         B2  
    1  C  1  S    0.983734  -0.243675   0.000000   0.165844   0.000000
    2  C  1  S    0.063273   0.641662   0.000000  -0.643100   0.000000
    3  C  1  X    0.000000   0.000000   0.520733   0.000000   0.000000
    4  C  1  Y    0.000000   0.000000   0.000000   0.000000   1.000000
    5  C  1  Z    0.011358   0.170910   0.000000   0.766041   0.000000
    6  H  2  S   -0.016439   0.285809  -0.462540   0.227438   0.000000
    7  H  3  S   -0.016439   0.285809   0.462540   0.227438   0.000000

                      6          7
                    0.7165     0.7715
                     A1         B1  
    1  C  1  S   -0.217216   0.000000
    2  C  1  S    1.114002   0.000000
    3  C  1  X    0.000000   1.125147
    4  C  1  Y    0.000000   0.000000
    5  C  1  Z    0.811132   0.000000
    6  H  2  S   -0.904459   0.836937
    7  H  3  S   -0.904459  -0.836937
 ...... END OF RHF CALCULATION ......
 STEP CPU TIME =     0.01 TOTAL CPU TIME =        0.2 (    0.0 MIN)
 TOTAL WALL CLOCK TIME=        0.2 SECONDS, CPU UTILIZATION IS 100.00%

          -----------------
          ENERGY COMPONENTS
          -----------------

         WAVEFUNCTION NORMALIZATION =       1.0000000000

                ONE ELECTRON ENERGY =     -62.2411640490
                TWO ELECTRON ENERGY =      18.8867585775
           NUCLEAR REPULSION ENERGY =       6.1221376700
                                      ------------------
                       TOTAL ENERGY =     -37.2322678015

 ELECTRON-ELECTRON POTENTIAL ENERGY =      18.8867585775
  NUCLEUS-ELECTRON POTENTIAL ENERGY =     -99.4193946754
   NUCLEUS-NUCLEUS POTENTIAL ENERGY =       6.1221376700
                                      ------------------
             TOTAL POTENTIAL ENERGY =     -74.4104984279
               TOTAL KINETIC ENERGY =      37.1782306264
                 VIRIAL RATIO (V/T) =       2.0014534628

  ...... PI ENERGY ANALYSIS ......

 ENERGY ANALYSIS:
            FOCK ENERGY=    -24.4676470721
          BARE H ENERGY=    -62.2411640490
     ELECTRONIC ENERGY =    -43.3544055605
         KINETIC ENERGY=     37.1782306264
          N-N REPULSION=      6.1221376700
           TOTAL ENERGY=    -37.2322678905
        SIGMA PART(1+2)=    -43.3544055605
               (K,V1,2)=     37.1782306264    -99.4193946754     18.8867584884
           PI PART(1+2)=      0.0000000000
               (K,V1,2)=      0.0000000000      0.0000000000      0.0000000000
  SIGMA SKELETON, ERROR=    -37.2322678905      0.0000000000
             MIXED PART= 0.00000E+00 0.00000E+00 0.00000E+00 0.00000E+00
 ...... END OF PI ENERGY ANALYSIS ......
 MEMORY ASSIGNEMENT
 I10, I20, I21, I30, I31, I40, I41, I60 =
****************************************************************
 LAST = ********

          ---------------------------------------
          MULLIKEN AND LOWDIN POPULATION ANALYSES
          ---------------------------------------
 MEMORY ASSIGNMENT
 I10, I30, I40, I50, I60, I70, I41, I51, I61, I71 =
********************************************************************************
 LAST = ********

     MULLIKEN ATOMIC POPULATION IN EACH MOLECULAR ORBITAL

                      1          2          3          4

                  2.000000   2.000000   2.000000   2.000000

    1             2.004857   1.226436   0.911524   1.850337
    2            -0.002428   0.386782   0.544238   0.074831
    3            -0.002428   0.386782   0.544238   0.074831

          ----- MULLIKEN ATOMIC OVERLAP POPULATIONS -----
          (OFF-DIAGONAL ELEMENTS NEED TO BE MULTIPLIED BY 2)

                      1          2          3          4          5

    1  C  1  S    2.109228
    2  C  1  S   -0.108437   1.658621
    3  C  1  X    0.000000   0.000000   0.542325
    4  C  1  Y    0.000000   0.000000   0.000000   0.000000
    5  C  1  Z    0.000000   0.000000   0.000000   0.000000   1.232317
    6  H  2  S   -0.005761   0.035317   0.184599   0.000000   0.119613
    7  H  3  S   -0.005761   0.035317   0.184599   0.000000   0.119613

                      6          7

    6  H  2  S    0.695258
    7  H  3  S   -0.025603   0.695258

               ----- POPULATIONS IN EACH AO -----
                             MULLIKEN      LOWDIN
              1  C  1  S      1.98927     1.98637
              2  C  1  S      1.62082     1.50434
              3  C  1  X      0.91152     0.95700
              4  C  1  Y      0.00000     0.00000
              5  C  1  Z      1.47154     1.50761
              6  H  2  S      1.00342     1.02234
              7  H  3  S      1.00342     1.02234

          ----- MULLIKEN ATOMIC OVERLAP POPULATIONS -----
          (OFF-DIAGONAL ELEMENTS NEED TO BE MULTIPLIED BY 2)

             1           2           3

    1    5.3256171
    2    0.3337681   0.6952578
    3    0.3337681  -0.0256025   0.6952578

          TOTAL MULLIKEN AND LOWDIN ATOMIC POPULATIONS
       ATOM         MULL.POP.                    LOW.POP.

          TOTAL MULLIKEN AND LOWDIN ATOMIC POPULATIONS
       ATOM         MULL.POP.    CHARGE          LOW.POP.     CHARGE
    1 C             5.993153                     5.955315
    1 C             5.993153    0.006847         5.955315    0.044685
    2 H             1.003423                     1.022342
    2 H             1.003423   -0.003423         1.022342   -0.022342
    3 H             1.003423                     1.022342
    3 H             1.003423   -0.003423         1.022342   -0.022342

          -------------------------------
          BOND ORDER AND VALENCE ANALYSIS     BOND ORDER THRESHOLD=0.050
          -------------------------------

                   BOND                       BOND                       BOND
  ATOM PAIR DIST  ORDER      ATOM PAIR DIST  ORDER      ATOM PAIR DIST  ORDER
    1   2  1.090  0.993        1   3  1.090  0.993

                       TOTAL       BONDED        FREE
      ATOM            VALENCE     VALENCE     VALENCE
    1 C                 1.986       1.986       0.000
    2 H                 1.000       1.000       0.000
    3 H                 1.000       1.000       0.000

          ---------------------
          ELECTROSTATIC MOMENTS
          ---------------------

 MEMORY ASSIGNMENT (ELECTROSTATIC MOMENTS):
           IELM   =********    IEMW   =********    IDENSA =********    IDENSB =********    LAST   =********
 POINT   1           X           Y           Z (BOHR)    CHARGE
                 0.000000    0.000000    0.000000        0.00 (A.U.)
         DX          DY          DZ         /D/  (DEBYE)
     0.000000    0.000000    1.515763    1.515763
 ...... END OF PROPERTY EVALUATION ......
 STEP CPU TIME =     0.00 TOTAL CPU TIME =        0.2 (    0.0 MIN)
 TOTAL WALL CLOCK TIME=        0.2 SECONDS, CPU UTILIZATION IS 100.00%
 100000 WORDS OF DYNAMIC MEMORY USED
 EXECUTION OF GAMESS TERMINATED NORMALLY Mon Jul 18 09:15:59 2005
 DDI: 920 bytes (0.0 MB / 0 MWords) used by master data server.

 ----------------------------------------
 CPU timing information for all processes
 ========================================
 0: 0.160000 + 0.020000 = 0.180000
 ----------------------------------------
 ddikick.x: exited gracefully.
----- accounting info -----
Mon Jul 18 09:16:02 BST 2005
Files used on the master node pc12759.ch.liv.ac.uk were:
-rw-r--r--    1 neil     users         364 Jul 18 09:15 /tmp/exam01.F05
-rw-r--r--    1 neil     users      180012 Jul 18 09:15 /tmp/exam01.F08
-rw-r--r--    1 neil     users      384872 Jul 18 09:15 /tmp/exam01.F10
0.060u 0.050s 0:03.34 3.2%	0+0k 0+0io 5951pf+0w
