

     ************************************************************************
     *************** Dalton - An Electronic Structure Program ***************
     ************************************************************************

    This is output from DALTON 2013.4
   ----------------------------------------------------------------------------
    NOTE:
     
    Dalton is an experimental code for the evaluation of molecular
    properties using (MC)SCF, DFT, CI, and CC wave functions.
    The authors accept no responsibility for the performance of
    the code or for the correctness of the results.
     
    The code (in whole or part) is provided under a licence and
    is not to be reproduced for further distribution without
    the written permission of the authors or their representatives.
     
    See the home page "http://daltonprogram.org" for further information.
     
    If results obtained with this code are published,
    the appropriate citations would be both of:
     
       K. Aidas, C. Angeli, K. L. Bak, V. Bakken, R. Bast,
       L. Boman, O. Christiansen, R. Cimiraglia, S. Coriani,
       P. Dahle, E. K. Dalskov, U. Ekstroem, T. Enevoldsen,
       J. J. Eriksen, P. Ettenhuber, B. Fernandez, L. Ferrighi,
       H. Fliegl, L. Frediani, K. Hald, A. Halkier, C. Haettig,
       H. Heiberg, T. Helgaker, A. C. Hennum, H. Hettema,
       E. Hjertenaes, S. Hoest, I.-M. Hoeyvik, M. F. Iozzi,
       B. Jansik, H. J. Aa. Jensen, D. Jonsson, P. Joergensen,
       J. Kauczor, S. Kirpekar, T. Kjaergaard, W. Klopper,
       S. Knecht, R. Kobayashi, H. Koch, J. Kongsted, A. Krapp,
       K. Kristensen, A. Ligabue, O. B. Lutnaes, J. I. Melo,
       K. V. Mikkelsen, R. H. Myhre, C. Neiss, C. B. Nielsen,
       P. Norman, J. Olsen, J. M. H. Olsen, A. Osted,
       M. J. Packer, F. Pawlowski, T. B. Pedersen, P. F. Provasi,
       S. Reine, Z. Rinkevicius, T. A. Ruden, K. Ruud, V. Rybkin,
       P. Salek, C. C. M. Samson, A. Sanchez de Meras, T. Saue,
       S. P. A. Sauer, B. Schimmelpfennig, K. Sneskov,
       A. H. Steindal, K. O. Sylvester-Hvid, P. R. Taylor,
       A. M. Teale, E. I. Tellgren, D. P. Tew, A. J. Thorvaldsen,
       L. Thoegersen, O. Vahtras, M. A. Watson, D. J. D. Wilson,
       M. Ziolkowski and H. Agren,
       "The Dalton quantum chemistry program system",
       WIREs Comput. Mol. Sci. 2013. (doi: 10.1002/wcms.1172)
    
    and
    
       Dalton, a Molecular Electronic Structure Program,
       Release DALTON2013.4 (2014), see http://daltonprogram.org
   ----------------------------------------------------------------------------

    Authors in alphabetical order (major contribution(s) in parenthesis):

  Kestutis Aidas,           Vilnius University,           Lithuania   (QM/MM)
  Celestino Angeli,         University of Ferrara,        Italy       (NEVPT2)
  Keld L. Bak,              UNI-C,                        Denmark     (AOSOPPA, non-adiabatic coupling, magnetic properties)
  Vebjoern Bakken,          University of Oslo,           Norway      (DALTON; geometry optimizer, symmetry detection)
  Radovan Bast,             KTH Stockholm,                Sweden      (DALTON installation and execution frameworks)
  Linus Boman,              NTNU,                         Norway      (Cholesky decomposition and subsystems)
  Ove Christiansen,         Aarhus University,            Denmark     (CC module)
  Renzo Cimiraglia,         University of Ferrara,        Italy       (NEVPT2)
  Sonia Coriani,            University of Trieste,        Italy       (CC module, MCD in RESPONS)
  Paal Dahle,               University of Oslo,           Norway      (Parallelization)
  Erik K. Dalskov,          UNI-C,                        Denmark     (SOPPA)
  Thomas Enevoldsen,        Univ. of Southern Denmark,    Denmark     (SOPPA)
  Janus J. Eriksen,         Aarhus University,            Denmark     (PE-MP2/SOPPA, TDA)
  Berta Fernandez,          U. of Santiago de Compostela, Spain       (doublet spin, ESR in RESPONS)
  Lara Ferrighi,            Aarhus University,            Denmark     (PCM Cubic response)
  Heike Fliegl,             University of Oslo,           Norway      (CCSD(R12))
  Luca Frediani,            UiT The Arctic U. of Norway,  Norway      (PCM)
  Bin Gao,                  UiT The Arctic U. of Norway,  Norway      (Gen1Int library)
  Christof Haettig,         Ruhr-University Bochum,       Germany     (CC module)
  Kasper Hald,              Aarhus University,            Denmark     (CC module)
  Asger Halkier,            Aarhus University,            Denmark     (CC module)
  Hanne Heiberg,            University of Oslo,           Norway      (geometry analysis, selected one-electron integrals)
  Trygve Helgaker,          University of Oslo,           Norway      (DALTON; ABACUS, ERI, DFT modules, London, and much more)
  Alf Christian Hennum,     University of Oslo,           Norway      (Parity violation)
  Hinne Hettema,            University of Auckland,       New Zealand (quadratic response in RESPONS; SIRIUS supersymmetry)
  Eirik Hjertenaes,         NTNU,                         Norway      (Cholesky decomposition)
  Maria Francesca Iozzi,    University of Oslo,           Norway      (RPA)
  Brano Jansik              Technical Univ. of Ostrava    Czech Rep.  (DFT cubic response)
  Hans Joergen Aa. Jensen,  Univ. of Southern Denmark,    Denmark     (DALTON; SIRIUS, RESPONS, ABACUS modules, London, and much more)
  Dan Jonsson,              UiT The Arctic U. of Norway,  Norway      (cubic response in RESPONS module)
  Poul Joergensen,          Aarhus University,            Denmark     (RESPONS, ABACUS, and CC modules)
  Joanna Kauczor,           Linkoeping University,        Sweden      (Complex polarization propagator (CPP) module)
  Sheela Kirpekar,          Univ. of Southern Denmark,    Denmark     (Mass-velocity & Darwin integrals)
  Wim Klopper,              KIT Karlsruhe,                Germany     (R12 code in CC, SIRIUS, and ABACUS modules)
  Stefan Knecht,            ETH Zurich,                   Switzerland (Parallel CI and MCSCF)
  Rika Kobayashi,           Australian National Univ.,    Australia   (DIIS in CC, London in MCSCF)
  Henrik Koch,              NTNU,                         Norway      (CC module, Cholesky decomposition)
  Jacob Kongsted,           Univ. of Southern Denmark,    Denmark     (Polarizable embedding, QM/MM)
  Andrea Ligabue,           University of Modena,         Italy       (CTOCD, AOSOPPA)
  Ola B. Lutnaes,           University of Oslo,           Norway      (DFT Hessian)
  Juan I. Melo,             University of Buenos Aires,   Argentina   (LRESC, Relativistic Effects on NMR Shieldings)
  Kurt V. Mikkelsen,        University of Copenhagen,     Denmark     (MC-SCRF and QM/MM)
  Rolf H. Myhre,            NTNU,                         Norway      (Cholesky, subsystems and ECC2)
  Christian Neiss,          Univ. Erlangen-Nuernberg,     Germany     (CCSD(R12))
  Christian B. Nielsen,     University of Copenhagen,     Denmark     (QM/MM)
  Patrick Norman,           Linkoeping University,        Sweden      (Cubic response and complex response in RESPONS)
  Jeppe Olsen,              Aarhus University,            Denmark     (SIRIUS CI/density modules)
  Jogvan Magnus H. Olsen,   Univ. of Southern Denmark,    Denmark     (Polarizable embedding, PE library, QM/MM)
  Anders Osted,             Copenhagen University,        Denmark     (QM/MM)
  Martin J. Packer,         University of Sheffield,      UK          (SOPPA)
  Filip Pawlowski,          Kazimierz Wielki University,  Poland      (CC3)
  Thomas B. Pedersen,       University of Oslo,           Norway      (Cholesky decomposition)
  Patricio F. Provasi,      University of Northeastern,   Argentina   (Analysis of coupling constants in localized orbitals)
  Zilvinas Rinkevicius,     KTH Stockholm,                Sweden      (open-shell DFT, ESR)
  Elias Rudberg,            KTH Stockholm,                Sweden      (DFT grid and basis info)
  Torgeir A. Ruden,         University of Oslo,           Norway      (Numerical derivatives in ABACUS)
  Kenneth Ruud,             UiT The Arctic U. of Norway,  Norway      (DALTON; ABACUS magnetic properties and  much more)
  Pawel Salek,              KTH Stockholm,                Sweden      (DALTON; DFT code)
  Claire C. M. Samson       University of Karlsruhe       Germany     (Boys localization, r12 integrals in ERI)
  Alfredo Sanchez de Meras, University of Valencia,       Spain       (CC module, Cholesky decomposition)
  Trond Saue,               Paul Sabatier University,     France      (direct Fock matrix construction)
  Stephan P. A. Sauer,      University of Copenhagen,     Denmark     (SOPPA(CCSD), SOPPA prop., AOSOPPA, vibrational g-factors)
  Bernd Schimmelpfennig,    Forschungszentrum Karlsruhe,  Germany     (AMFI module)
  Kristian Sneskov,         Aarhus University,            Denmark     (QM/MM, PE-CC)
  Arnfinn H. Steindal,      UiT The Arctic U. of Norway,  Norway      (parallel QM/MM)
  K. O. Sylvester-Hvid,     University of Copenhagen,     Denmark     (MC-SCRF)
  Peter R. Taylor,          VLSCI/Univ. of Melbourne,     Australia   (Symmetry handling ABACUS, integral transformation)
  Andrew M. Teale,          University of Nottingham,     England     (DFT-AC, DFT-D)
  David P. Tew,             University of Bristol,        England     (CCSD(R12))
  Olav Vahtras,             KTH Stockholm,                Sweden      (triplet response, spin-orbit, ESR, TDDFT, open-shell DFT)
  David J. Wilson,          La Trobe University,          Australia   (DFT Hessian and DFT magnetizabilities)
  Hans Agren,               KTH Stockholm,                Sweden      (SIRIUS module, RESPONS, MC-SCRF solvation model)
 --------------------------------------------------------------------------------

     Date and time (Linux)  : Sun Jan 13 23:04:32 2019
     Host name              : osmium                                  

 * Work memory size             :    64000000 =  488.28 megabytes.

 * Directories for basis set searches:
   1) /home/eric/development/cclib_berquist/data/DALTON/basicDALTON-2013
   2) /home/eric/data/opt/apps/dalton/2013-g6.5.0-slowmath/dalton/basis


Compilation information
-----------------------

 Who compiled             | eric
 Host                     | osmium
 System                   | Linux-4.20.0-arch1-1-ARCH
 CMake generator          | Unix Makefiles
 Processor                | x86_64
 64-bit integers          | OFF
 MPI                      | OFF
 Fortran compiler         | /usr/bin/gfortran-6
 Fortran compiler version | unknown
 Fortran flags            | -DVAR_GFORTRAN -DGFORTRAN=445 -ffloat-store -fcray
                          | -pointer -m64 -O3 -ffast-math -funroll-loops -ftre
                          | e-vectorize -w
 C compiler               | /usr/bin/gcc-6
 C compiler version       | unknown
 C flags                  | -std=c99 -DRESTRICT=restrict -DFUNDERSCORE=1 -DHAV
                          | E_NO_LSEEK64 -ffloat-store -m64 -O3 -ffast-math -f
                          | unroll-loops -ftree-vectorize -Wno-unused
 C++ compiler             | /usr/bin/g++-6
 C++ compiler version     | unknown
 C++ flags                | -Wall -Wno-unknown-pragmas -Wno-sign-compare -Wove
                          | rloaded-virtual -Wwrite-strings -Wno-unused -Ofast
                          |  -march=native -DNDEBUG -Wno-unused
 Static linking           | OFF
 Last Git revision        | 8d718ae4dbc550b3a2c48339c5b7324f32ac1237
 Configuration time       | 2019-01-13 21:38:16.071665


   Content of the .dal input file
 ----------------------------------

BASIS                                             
STO-3G                                            
divinylbenzene                                    
Generated by Open Babel                           
AtomTypes=6 Angstrom                              
Charge=6.0 Atoms=6                                
C            -1.4152533224    0.2302217854    0.00
C             1.4152533224   -0.2302217854    0.00
C            -0.4951331558    1.3144608674    0.00
C             0.4951331558   -1.3144608674    0.00
C             0.8894090436    1.0909493743    0.00
C            -0.8894090436   -1.0909493743    0.00
Charge=1.0 Atoms=4                                
H            -0.8795511985    2.3437343748    0.00
H             0.8795511985   -2.3437343748    0.00
H             1.5779041557    1.9450061275    0.00
H            -1.5779041557   -1.9450061275    0.00
Charge=6.0 Atoms=2                                
C             2.8845844962   -0.5210893778    0.00
C            -2.8845844962    0.5210893778    0.00
Charge=1.0 Atoms=2                                
H             3.1403356810   -1.5919605685    0.00
H            -3.1403356810    1.5919605685    0.00
Charge=6.0 Atoms=2                                
C             3.8800428103    0.3822535424    0.00
C            -3.8800428103   -0.3822535424    0.00
Charge=1.0 Atoms=4                                
H             3.6946765858    1.4624389570    0.00
H            -3.6946765858   -1.4624389570    0.00
H             4.9316453546    0.0711049543    0.00
H            -4.9316453546   -0.0711049543    0.00
                                                  
**DALTON                                          
.RUN RESPONSE                                     
**WAVE FUNCTIONS                                  
.DFT                                              
 B3LYP                                            
**RESPONSE                                        
*LINEAR                                           
.SINGLE RESIDUE                                   
.DIPLEN                                           
.ROOTS                                            
 5 5 5 5                                          
.PRINT                                            
4                                                 
**END OF                                          


       *******************************************************************
       *********** Output from DALTON general input processing ***********
       *******************************************************************

 --------------------------------------------------------------------------------
   Overall default print level:    0
   Print level for DALTON.STAT:    1

    HERMIT 1- and 2-electron integral sections will be executed
    "Old" integral transformation used (limited to max 255 basis functions)
    Wave function sections will be executed (SIRIUS module)
    Dynamic molecular response properties section will be executed (RESPONSE module)
 --------------------------------------------------------------------------------


   ****************************************************************************
   *************** Output of molecule and basis set information ***************
   ****************************************************************************


    The two title cards from your ".mol" input:
    ------------------------------------------------------------------------
 1: divinylbenzene                                                          
 2: Generated by Open Babel                                                 
    ------------------------------------------------------------------------

  Coordinates are entered in Angstrom and converted to atomic units.
          - Conversion factor : 1 bohr = 0.52917721 A

  Atomic type no.    1
  --------------------
  Nuclear charge:   6.00000
  Number of symmetry independent centers:    6
  Number of basis sets to read;    2
  Basis set file used for this atomic type with Z =   6 :
     "/home/eric/data/opt/apps/dalton/2013-g6.5.0-slowmath/dalton/basis/STO-3G"

  Atomic type no.    2
  --------------------
  Nuclear charge:   1.00000
  Number of symmetry independent centers:    4
  Number of basis sets to read;    2
  Basis set file used for this atomic type with Z =   1 :
     "/home/eric/data/opt/apps/dalton/2013-g6.5.0-slowmath/dalton/basis/STO-3G"

  Atomic type no.    3
  --------------------
  Nuclear charge:   6.00000
  Number of symmetry independent centers:    2
  Number of basis sets to read;    2
  Basis set file used for this atomic type with Z =   6 :
     "/home/eric/data/opt/apps/dalton/2013-g6.5.0-slowmath/dalton/basis/STO-3G"

  Atomic type no.    4
  --------------------
  Nuclear charge:   1.00000
  Number of symmetry independent centers:    2
  Number of basis sets to read;    2
  Basis set file used for this atomic type with Z =   1 :
     "/home/eric/data/opt/apps/dalton/2013-g6.5.0-slowmath/dalton/basis/STO-3G"

  Atomic type no.    5
  --------------------
  Nuclear charge:   6.00000
  Number of symmetry independent centers:    2
  Number of basis sets to read;    2
  Basis set file used for this atomic type with Z =   6 :
     "/home/eric/data/opt/apps/dalton/2013-g6.5.0-slowmath/dalton/basis/STO-3G"

  Atomic type no.    6
  --------------------
  Nuclear charge:   1.00000
  Number of symmetry independent centers:    4
  Number of basis sets to read;    2
  Basis set file used for this atomic type with Z =   1 :
     "/home/eric/data/opt/apps/dalton/2013-g6.5.0-slowmath/dalton/basis/STO-3G"


                      SYMADD: Requested addition of symmetry
                      --------------------------------------

 Symmetry test threshold:  5.00E-06

@   The molecule is centered at center of mass and rotated
@   so principal axes of inertia are along coordinate axes.

 Symmetry class found: C(2h)          

 Symmetry Independent Centres             
 ----------------------------
       6 :      2.65435173     0.00000000     0.00000000  Isotope  1
       6 :     -1.33679823     2.29957212     0.00000000  Isotope  1
       6 :      1.34987787     2.34941252     0.00000000  Isotope  1
       6 :      2.84302643     4.75405952     0.00000000  Isotope  1
       6 :      1.90863933     7.11620100     0.00000000  Isotope  1
       1 :      4.73061964    -0.00581865     0.00000000  Isotope  1
       1 :     -2.38850486     4.08604068     0.00000000  Isotope  1
       1 :      4.90714746     4.49299343     0.00000000  Isotope  1
       1 :     -0.12506744     7.50794221     0.00000000  Isotope  1
       1 :      3.15939030     8.76861592     0.00000000  Isotope  1

 The following elements were found:   Z  XY    


                         SYMGRP: Point group information
                         -------------------------------

@    Full point group is: C(2h)          
@    Represented as:      C2h

@  * The irrep name for each symmetry:    1: Ag     2: Au     3: Bu     4: Bg 

   * The point group was generated by:

      Reflection in the xy-plane
      Rotation about the z-axis

   * Group multiplication table

        |  E   C2z   i   Oxy
   -----+--------------------
     E  |  E   C2z   i   Oxy
    C2z | C2z   E   Oxy   i 
     i  |  i   Oxy   E   C2z
    Oxy | Oxy   i   C2z   E 

   * Character table

        |  E   C2z   i   Oxy
   -----+--------------------
    Ag  |   1    1    1    1
    Au  |   1    1   -1   -1
    Bu  |   1   -1   -1    1
    Bg  |   1   -1    1   -1

   * Direct product table

        | Ag   Au   Bu   Bg 
   -----+--------------------
    Ag  | Ag   Au   Bu   Bg 
    Au  | Au   Ag   Bg   Bu 
    Bu  | Bu   Bg   Ag   Au 
    Bg  | Bg   Bu   Au   Ag 


                                 Isotopic Masses
                                 ---------------

                           C   _1     12.000000
                           C   _2     12.000000
                           C   _1     12.000000
                           C   _2     12.000000
                           C   _1     12.000000
                           C   _2     12.000000
                           H   _1      1.007825
                           H   _2      1.007825
                           H   _1      1.007825
                           H   _2      1.007825
                           C   _1     12.000000
                           C   _2     12.000000
                           H   _1      1.007825
                           H   _2      1.007825
                           C   _1     12.000000
                           C   _2     12.000000
                           H   _1      1.007825
                           H   _2      1.007825
                           H   _1      1.007825
                           H   _2      1.007825

                       Total mass:   130.078250 amu
                       Natural abundance:  89.395 %

 Center-of-mass coordinates (a.u.):    0.000000    0.000000    0.000000


  Atoms and basis sets
  --------------------

  Number of atom types :    6
  Total number of atoms:   20

  Basis set used is "STO-3G" from the basis set library.

  label    atoms   charge   prim   cont     basis
  ----------------------------------------------------------------------
  C           6    6.0000    15     5      [6s3p|2s1p]                                        
  H           4    1.0000     3     1      [3s|1s]                                            
  C           2    6.0000    15     5      [6s3p|2s1p]                                        
  H           2    1.0000     3     1      [3s|1s]                                            
  C           2    6.0000    15     5      [6s3p|2s1p]                                        
  H           4    1.0000     3     1      [3s|1s]                                            
  ----------------------------------------------------------------------
  total:     20   70.0000   180    60
  ----------------------------------------------------------------------

  Threshold for neglecting AO integrals:  1.00D-12


  Symmetry Coordinates
  --------------------

  Number of coordinates in each symmetry:    20   10   20   10

  Max    interatomic separation is    9.8643 Angstrom (   18.6409 Bohr)
  between atoms   20 and   19, "H   _2" and "H   _1".

  Min HX interatomic separation is    1.0960 Angstrom (    2.0711 Bohr)

  Min YX interatomic separation is    1.3442 Angstrom (    2.5402 Bohr)


  Bond distances (Angstrom):
  --------------------------

                  atom 1     atom 2       distance
                  ------     ------       --------
  bond distance:  C   _1     C   _1       1.422039
  bond distance:  C   _2     C   _2       1.422039
  bond distance:  C   _1     C   _1       1.421972
  bond distance:  C   _1     C   _2       1.402467
  bond distance:  C   _2     C   _2       1.421972
  bond distance:  C   _2     C   _1       1.402467
  bond distance:  H   _1     C   _1       1.098718
  bond distance:  H   _2     C   _2       1.098718
  bond distance:  H   _1     C   _1       1.097013
  bond distance:  H   _2     C   _2       1.097013
  bond distance:  C   _1     C   _1       1.497844
  bond distance:  C   _2     C   _2       1.497844
  bond distance:  H   _1     C   _1       1.100988
  bond distance:  H   _2     C   _2       1.100988
  bond distance:  C   _1     C   _1       1.344234
  bond distance:  C   _2     C   _2       1.344234
  bond distance:  H   _1     C   _1       1.095975
  bond distance:  H   _2     C   _2       1.095975
  bond distance:  H   _1     C   _1       1.096668
  bond distance:  H   _2     C   _2       1.096668


  Bond angles (degrees):
  ----------------------

                  atom 1     atom 2     atom 3         angle
                  ------     ------     ------         -----
  bond angle:     C   _1     C   _1     C   _1       117.978
  bond angle:     C   _1     C   _1     C   _1       119.122
  bond angle:     C   _1     C   _1     C   _1       122.901
  bond angle:     C   _2     C   _2     C   _2       117.978
  bond angle:     C   _2     C   _2     C   _2       119.122
  bond angle:     C   _2     C   _2     C   _2       122.901
  bond angle:     C   _1     C   _1     C   _2       121.149
  bond angle:     C   _1     C   _1     H   _1       119.201
  bond angle:     C   _2     C   _1     H   _1       119.650
  bond angle:     C   _2     C   _2     C   _1       121.149
  bond angle:     C   _2     C   _2     H   _2       119.201
  bond angle:     C   _1     C   _2     H   _2       119.650
  bond angle:     C   _1     C   _1     C   _2       120.874
  bond angle:     C   _1     C   _1     H   _1       119.423
  bond angle:     C   _2     C   _1     H   _1       119.704
  bond angle:     C   _2     C   _2     C   _1       120.874
  bond angle:     C   _2     C   _2     H   _2       119.423
  bond angle:     C   _1     C   _2     H   _2       119.704
  bond angle:     C   _1     C   _1     H   _1       114.630
  bond angle:     C   _1     C   _1     C   _1       126.580
  bond angle:     H   _1     C   _1     C   _1       118.791
  bond angle:     C   _2     C   _2     H   _2       114.630
  bond angle:     C   _2     C   _2     C   _2       126.580
  bond angle:     H   _2     C   _2     C   _2       118.791
  bond angle:     C   _1     C   _1     H   _1       122.485
  bond angle:     C   _1     C   _1     H   _1       121.295
  bond angle:     H   _1     C   _1     H   _1       116.220
  bond angle:     C   _2     C   _2     H   _2       122.485
  bond angle:     C   _2     C   _2     H   _2       121.295
  bond angle:     H   _2     C   _2     H   _2       116.220




 Principal moments of inertia (u*A**2) and principal axes
 --------------------------------------------------------

   IA     109.440483          0.348144    0.937441    0.000000
   IB     736.959951          0.937441   -0.348144    0.000000
   IC     846.400433          0.000000    0.000000    1.000000


 Rotational constants
 --------------------

@    The molecule is planar.

               A                   B                   C

           4617.8434            685.7618            597.0921 MHz
            0.154035            0.022875            0.019917 cm-1


@  Nuclear repulsion energy :  445.936979976608 Hartree


  Symmetry Orbitals
  -----------------

  Number of orbitals in each symmetry:          25    5   25    5


  Symmetry  Ag ( 1)

    1     C        1s         1 +    2
    2     C        1s         3 +    4
    3     C        2px        5 -    6
    4     C        2py        7 -    8
    5     C        1s        11 +   12
    6     C        1s        13 +   14
    7     C        2px       15 -   16
    8     C        2py       17 -   18
    9     C        1s        21 +   22
   10     C        1s        23 +   24
   11     C        2px       25 -   26
   12     C        2py       27 -   28
   13     H        1s        31 +   32
   14     H        1s        33 +   34
   15     C        1s        35 +   36
   16     C        1s        37 +   38
   17     C        2px       39 -   40
   18     C        2py       41 -   42
   19     H        1s        45 +   46
   20     C        1s        47 +   48
   21     C        1s        49 +   50
   22     C        2px       51 -   52
   23     C        2py       53 -   54
   24     H        1s        57 +   58
   25     H        1s        59 +   60


  Symmetry  Au ( 2)

   26     C        2pz        9 +   10
   27     C        2pz       19 +   20
   28     C        2pz       29 +   30
   29     C        2pz       43 +   44
   30     C        2pz       55 +   56


  Symmetry  Bu ( 3)

   31     C        1s         1 -    2
   32     C        1s         3 -    4
   33     C        2px        5 +    6
   34     C        2py        7 +    8
   35     C        1s        11 -   12
   36     C        1s        13 -   14
   37     C        2px       15 +   16
   38     C        2py       17 +   18
   39     C        1s        21 -   22
   40     C        1s        23 -   24
   41     C        2px       25 +   26
   42     C        2py       27 +   28
   43     H        1s        31 -   32
   44     H        1s        33 -   34
   45     C        1s        35 -   36
   46     C        1s        37 -   38
   47     C        2px       39 +   40
   48     C        2py       41 +   42
   49     H        1s        45 -   46
   50     C        1s        47 -   48
   51     C        1s        49 -   50
   52     C        2px       51 +   52
   53     C        2py       53 +   54
   54     H        1s        57 -   58
   55     H        1s        59 -   60


  Symmetry  Bg ( 4)

   56     C        2pz        9 -   10
   57     C        2pz       19 -   20
   58     C        2pz       29 -   30
   59     C        2pz       43 -   44
   60     C        2pz       55 -   56

  Symmetries of electric field:  Bu (3)  Bu (3)  Au (2)

  Symmetries of magnetic field:  Bg (4)  Bg (4)  Ag (1)


                     .---------------------------------------.
                     | Starting in Integral Section (HERMIT) |
                     `---------------------------------------'



 ***************************************************************************************
 ****************** Output from **INTEGRALS input processing (HERMIT) ******************
 ***************************************************************************************


 - Using defaults, no **INTEGRALS input found

 Default print level:        1

 * Nuclear model: Point charge

 Calculation of one- and two-electron Hamiltonian integrals.

 Center of mass  (bohr):      0.000000000000      0.000000000000      0.000000000000
 Operator center (bohr):      0.000000000000      0.000000000000      0.000000000000
 Gauge origin    (bohr):      0.000000000000      0.000000000000      0.000000000000
 Dipole origin   (bohr):      0.000000000000      0.000000000000      0.000000000000


     ************************************************************************
     ************************** Output from HERINT **************************
     ************************************************************************


 Threshold for neglecting two-electron integrals:  1.00D-12
 Number of two-electron integrals written:      491917 ( 29.4% )
 Megabytes written:                              5.634

 >>>  Time used in TWOINT     is   0.87 seconds
 >>>> Total CPU  time used in HERMIT:   0.92 seconds
 >>>> Total wall time used in HERMIT:   0.92 seconds


                        .----------------------------------.
                        | End of Integral Section (HERMIT) |
                        `----------------------------------'



                   .--------------------------------------------.
                   | Starting in Wave Function Section (SIRIUS) |
                   `--------------------------------------------'


 *** Output from Huckel module :

     Using EWMO model:          F
     Using EHT  model:          T
     Number of Huckel orbitals each symmetry:   25    5   25    5

 Huckel EHT eigenvalues for symmetry :  1
          -11.412667     -11.394444     -11.380082     -11.373930     -11.366652
           -1.590572      -1.271262      -1.005483      -0.873302      -0.806759
           -0.700274      -0.549017      -0.505801      -0.412120      -0.396237
           -0.236269      -0.222264      -0.218170      -0.210043      -0.202957
           -0.184659      -0.179254      -0.174633      -0.168871      -0.162771

 Huckel EHT eigenvalues for symmetry :  2
           -0.739871      -0.491895      -0.316005      -0.289880      -0.257531

 Huckel EHT eigenvalues for symmetry :  3
          -11.404364     -11.393031     -11.385456     -11.370506     -11.360644
           -1.419628      -1.246250      -1.068443      -0.839873      -0.667467
           -0.602988      -0.536545      -0.523208      -0.446556      -0.440004
           -0.245140      -0.227990      -0.211513      -0.204377      -0.203207
           -0.182591      -0.175467      -0.166167      -0.162339      -0.160749

 Huckel EHT eigenvalues for symmetry :  4
           -0.583648      -0.460396      -0.409222      -0.286360      -0.234191

 **********************************************************************
 *SIRIUS* a direct, restricted step, second order MCSCF program       *
 **********************************************************************

 
     Date and time (Linux)  : Sun Jan 13 23:04:33 2019
     Host name              : osmium                                  

 Title lines from ".mol" input file:
     divinylbenzene                                                          
     Generated by Open Babel                                                 

 Print level on unit LUPRI =   2 is   0
 Print level on unit LUW4  =   2 is   5

@    Restricted, closed shell Kohn-Sham DFT calculation.

@    Time-dependent Kohn-Sham DFT calculation (TD-DFT).

 Initial molecular orbitals are obtained according to
 ".MOSTART EHT   " input option

     Wave function specification
     ============================
@    Wave function type        >>> KS-DFT <<<
@    Number of closed shell electrons          70
@    Number of electrons in active shells       0
@    Total charge of the molecule               0

@    Spin multiplicity and 2 M_S                1         0
@    Total number of symmetries                 4 (point group: C2h)
@    Reference state symmetry                   1 (irrep name : Ag )
 
     This is a DFT calculation of type: B3LYP
 Weighted mixed functional:
               HF exchange:    0.20000
                       VWN:    0.19000
                       LYP:    0.81000
                     Becke:    0.72000
                    Slater:    0.80000

     Orbital specifications
     ======================
     Abelian symmetry species          All |    1    2    3    4
                                           |  Ag   Au   Bu   Bg 
                                       --- |  ---  ---  ---  ---
     Total number of orbitals           60 |   25    5   25    5
     Number of basis functions          60 |   25    5   25    5

      ** Automatic occupation of RKS orbitals **

      -- Initial occupation of symmetries is determined from extended Huckel guess.           
      -- Initial occupation of symmetries is :
@    Occupied SCF orbitals              35 |   15    2   15    3

     Maximum number of Fock   iterations      0
     Maximum number of DIIS   iterations     60
     Maximum number of QC-SCF iterations     60
     Threshold for SCF convergence     1.00D-05
 
     This is a DFT calculation of type: B3LYP
 Weighted mixed functional:
               HF exchange:    0.20000
                       VWN:    0.19000
                       LYP:    0.81000
                     Becke:    0.72000
                    Slater:    0.80000


 >>>>> DIIS optimization of Hartree-Fock <<<<<

 C1-DIIS algorithm; max error vectors =    8

 Automatic occupation of symmetries with  70 electrons.

 Iter     Total energy    Error norm  Delta(E)    SCF occupation
 -----------------------------------------------------------------------------
      K-S energy, electrons, error :    -46.547567739269  69.9999799123   -2.01D-05
@  1  -381.645762476       4.00D+00  -3.82D+02    15   2  15   3
      Virial theorem: -V/T =      2.008993
@      MULPOP C   _1  0.15; C   _2  0.15; C   _1  0.12; C   _2  0.12; C   _1  0.11; C   _2  0.11; H   _1 -0.15; H   _2 -0.15; H   _1 -0.14; H   _2 -0.14; 
@             C   _1  0.23; C   _2  0.23; H   _1 -0.15; H   _2 -0.15; C   _1  0.08; C   _2  0.08; H   _1 -0.12; H   _2 -0.12; H   _1 -0.13; H   _2 -0.13; 
 -----------------------------------------------------------------------------
      K-S energy, electrons, error :    -46.647598211908  69.9999810409   -1.90D-05
@  2  -381.949594869       1.05D+00  -3.04D-01    15   2  15   3
      Virial theorem: -V/T =      2.013395
@      MULPOP C   _1 -0.16; C   _2 -0.16; C   _1 -0.17; C   _2 -0.17; C   _1 -0.15; C   _2 -0.15; H   _1  0.20; H   _2  0.20; H   _1  0.20; H   _2  0.20; 
@             C   _1 -0.41; C   _2 -0.41; H   _1  0.20; H   _2  0.20; C   _1 -0.04; C   _2 -0.04; H   _1  0.15; H   _2  0.15; H   _1  0.16; H   _2  0.16; 
 -----------------------------------------------------------------------------
      K-S energy, electrons, error :    -46.503728513833  69.9999801339   -1.99D-05
@  3  -381.933297171       1.18D+00   1.63D-02    15   2  15   3
      Virial theorem: -V/T =      2.016971
@      MULPOP C   _1  0.15; C   _2  0.15; C   _1 -0.05; C   _2 -0.05; C   _1 -0.09; C   _2 -0.09; H   _1  0.02; H   _2  0.02; H   _1  0.02; H   _2  0.02; 
@             C   _1  0.35; C   _2  0.35; H   _1  0.00; H   _2  0.00; C   _1 -0.57; C   _2 -0.57; H   _1  0.09; H   _2  0.09; H   _1  0.08; H   _2  0.08; 
 -----------------------------------------------------------------------------
      K-S energy, electrons, error :    -46.507829833546  69.9999810270   -1.90D-05
@  4  -382.043792264       2.96D-01  -1.10D-01    15   2  15   3
      Virial theorem: -V/T =      2.016965
@      MULPOP C   _1 -0.01; C   _2 -0.01; C   _1 -0.06; C   _2 -0.06; C   _1 -0.05; C   _2 -0.05; H   _1  0.06; H   _2  0.06; H   _1  0.06; H   _2  0.06; 
@             C   _1 -0.16; C   _2 -0.16; H   _1  0.07; H   _2  0.07; C   _1 -0.01; C   _2 -0.01; H   _1  0.05; H   _2  0.05; H   _1  0.05; H   _2  0.05; 
 -----------------------------------------------------------------------------
      K-S energy, electrons, error :    -46.526122235374  69.9999807912   -1.92D-05
@  5  -382.050675776       2.34D-02  -6.88D-03    15   2  15   3
      Virial theorem: -V/T =      2.016522
@      MULPOP C   _1 -0.02; C   _2 -0.02; C   _1 -0.07; C   _2 -0.07; C   _1 -0.08; C   _2 -0.08; H   _1  0.08; H   _2  0.08; H   _1  0.08; H   _2  0.08; 
@             C   _1 -0.07; C   _2 -0.07; H   _1  0.08; H   _2  0.08; C   _1 -0.15; C   _2 -0.15; H   _1  0.08; H   _2  0.08; H   _1  0.08; H   _2  0.08; 
 -----------------------------------------------------------------------------
      K-S energy, electrons, error :    -46.526439000426  69.9999807981   -1.92D-05
@  6  -382.050712120       7.66D-03  -3.63D-05    15   2  15   3
      Virial theorem: -V/T =      2.016514
@      MULPOP C   _1 -0.00; C   _2 -0.00; C   _1 -0.08; C   _2 -0.08; C   _1 -0.08; C   _2 -0.08; H   _1  0.08; H   _2  0.08; H   _1  0.08; H   _2  0.08; 
@             C   _1 -0.08; C   _2 -0.08; H   _1  0.08; H   _2  0.08; C   _1 -0.15; C   _2 -0.15; H   _1  0.08; H   _2  0.08; H   _1  0.08; H   _2  0.08; 
 -----------------------------------------------------------------------------
      K-S energy, electrons, error :    -46.526347037626  69.9999807981   -1.92D-05
@  7  -382.050716431       1.58D-03  -4.31D-06    15   2  15   3
      Virial theorem: -V/T =      2.016516
@      MULPOP C   _1 -0.00; C   _2 -0.00; C   _1 -0.08; C   _2 -0.08; C   _1 -0.08; C   _2 -0.08; H   _1  0.08; H   _2  0.08; H   _1  0.08; H   _2  0.08; 
@             C   _1 -0.08; C   _2 -0.08; H   _1  0.08; H   _2  0.08; C   _1 -0.15; C   _2 -0.15; H   _1  0.08; H   _2  0.08; H   _1  0.08; H   _2  0.08; 
 -----------------------------------------------------------------------------
      K-S energy, electrons, error :    -46.526336626954  69.9999807966   -1.92D-05
@  8  -382.050716649       1.82D-04  -2.18D-07    15   2  15   3
      Virial theorem: -V/T =      2.016516
@      MULPOP C   _1 -0.00; C   _2 -0.00; C   _1 -0.08; C   _2 -0.08; C   _1 -0.08; C   _2 -0.08; H   _1  0.08; H   _2  0.08; H   _1  0.08; H   _2  0.08; 
@             C   _1 -0.08; C   _2 -0.08; H   _1  0.08; H   _2  0.08; C   _1 -0.15; C   _2 -0.15; H   _1  0.08; H   _2  0.08; H   _1  0.08; H   _2  0.08; 
 -----------------------------------------------------------------------------
      K-S energy, electrons, error :    -46.526338679826  69.9999807967   -1.92D-05
@  9  -382.050716652       1.05D-04  -2.18D-09    15   2  15   3
      Virial theorem: -V/T =      2.016516
@      MULPOP C   _1 -0.00; C   _2 -0.00; C   _1 -0.08; C   _2 -0.08; C   _1 -0.08; C   _2 -0.08; H   _1  0.08; H   _2  0.08; H   _1  0.08; H   _2  0.08; 
@             C   _1 -0.08; C   _2 -0.08; H   _1  0.08; H   _2  0.08; C   _1 -0.15; C   _2 -0.15; H   _1  0.08; H   _2  0.08; H   _1  0.08; H   _2  0.08; 
 -----------------------------------------------------------------------------
      K-S energy, electrons, error :    -46.526338756379  69.9999807967   -1.92D-05
@ 10  -382.050716652       1.38D-05  -8.56D-10    15   2  15   3
      Virial theorem: -V/T =      2.016516
@      MULPOP C   _1 -0.00; C   _2 -0.00; C   _1 -0.08; C   _2 -0.08; C   _1 -0.08; C   _2 -0.08; H   _1  0.08; H   _2  0.08; H   _1  0.08; H   _2  0.08; 
@             C   _1 -0.08; C   _2 -0.08; H   _1  0.08; H   _2  0.08; C   _1 -0.15; C   _2 -0.15; H   _1  0.08; H   _2  0.08; H   _1  0.08; H   _2  0.08; 
 -----------------------------------------------------------------------------
      K-S energy, electrons, error :    -46.526338763620  69.9999807967   -1.92D-05
@ 11  -382.050716652       5.50D-07  -1.82D-11    15   2  15   3

@ *** DIIS converged in  11 iterations !
@     Converged SCF energy, gradient:   -382.050716652386    5.50D-07
    - total time used in SIRFCK :              0.00 seconds


 *** SCF orbital energy analysis ***

 Only the five lowest virtual orbital energies printed in each symmetry.

 Number of electrons :   70
 Orbital occupations :   15    2   15    3

 Sym       Kohn-Sham orbital energies

1 Ag    -10.01616531   -10.00394276   -10.00288623   -10.00209598    -9.98818092
         -0.80583148    -0.71422411    -0.58487247    -0.55551088    -0.50630122
         -0.45396879    -0.39229805    -0.34337028    -0.28932149    -0.28384131
          0.33612238     0.38491444     0.41398347     0.44301796     0.48199509

2 Au     -0.32087848    -0.20872854     0.04114110     0.09375556     0.18584991


3 Bu    -10.01621373   -10.00394366   -10.00288426   -10.00223886    -9.98818099
         -0.75030119    -0.69628273    -0.66366796    -0.52778529    -0.43556540
         -0.40737288    -0.39404885    -0.37078905    -0.34727582    -0.30741809
          0.34427344     0.38318090     0.41486883     0.42944016     0.45736720

4 Bg     -0.25985567    -0.19155689    -0.14937781     0.11436359     0.27596150


    E(LUMO) :     0.04114110 au (symmetry 2)
  - E(HOMO) :    -0.14937781 au (symmetry 4)
  ------------------------------------------
    gap     :     0.19051891 au

 >>> Writing SIRIFC interface file <<<

 >>>> CPU and wall time for SCF :      16.612      16.628


                       .-----------------------------------.
                       | >>> Final results from SIRIUS <<< |
                       `-----------------------------------'


@    Spin multiplicity:           1
@    Spatial symmetry:            1 ( irrep  Ag  in C2h )
@    Total charge of molecule:    0

@    Final DFT energy:           -382.050716652386                 
@    Nuclear repulsion:           445.936979976608
@    Electronic energy:          -827.987696628994

@    Final gradient norm:           0.000000550478

 
     Date and time (Linux)  : Sun Jan 13 23:04:49 2019
     Host name              : osmium                                  

 (Only coefficients >0.0100 are printed.)

 Molecular orbitals for symmetry species 1  (Ag )
 ------------------------------------------------

    Orbital        11       12       13       14       15       16       17
   1 C   :1s     0.0323  -0.0217   0.0251   0.0034  -0.0070   0.0682  -0.0227
   2 C   :1s    -0.1064   0.0716  -0.0903  -0.0228   0.0338  -0.4014   0.1370
   3 C   :2px   -0.0943   0.0183   0.0836   0.0292   0.3104  -0.1769   0.0708
   4 C   :2py   -0.1061   0.0041  -0.0303  -0.2972  -0.0141  -0.2262  -0.1069
   5 C   :1s     0.0134   0.0251   0.0053  -0.0027  -0.0120   0.0282   0.0644
   6 C   :1s    -0.0516  -0.0840  -0.0269   0.0088   0.0356  -0.1736  -0.3933
   7 C   :2px   -0.1775   0.0345  -0.1668  -0.0274  -0.2253  -0.3041  -0.0454
   8 C   :2py   -0.0849   0.0748  -0.0805   0.3070   0.0313   0.0558  -0.1157
   9 C   :1s    -0.0198  -0.0182  -0.0075   0.0089   0.0076   0.0465   0.0200
  10 C   :1s     0.0563   0.0680   0.0254  -0.0247  -0.0220  -0.2810  -0.1276
  11 C   :2px    0.0320   0.0128  -0.1085   0.0063  -0.2965   0.1467   0.0912
  12 C   :2py   -0.1569   0.1411  -0.1088   0.2478   0.0078  -0.1871  -0.2544
  13 H   :1s    -0.1360  -0.0061  -0.1565  -0.0202  -0.2581   0.4138   0.2915
  14 H   :1s    -0.0904   0.1141   0.0079   0.2404   0.1514   0.4238   0.2950
  15 C   :1s    -0.0402   0.0277  -0.0169   0.0199  -0.0111  -0.0500  -0.0636
  16 C   :1s     0.1277  -0.0806   0.0713  -0.0828   0.0384   0.2820   0.3822
  17 C   :2px    0.1719   0.2073   0.1654   0.1271  -0.1672  -0.3472   0.3424
  18 C   :2py    0.1331  -0.1642  -0.1547   0.2176  -0.0573  -0.2317  -0.0501
  19 H   :1s     0.1531   0.1451   0.2003   0.0664  -0.1827   0.1445  -0.5796
  20 C   :1s     0.0169   0.0045   0.0105  -0.0083  -0.0047   0.0409   0.0199
  21 C   :1s    -0.0633   0.0001  -0.0271   0.0213   0.0184  -0.2370  -0.1109
  22 C   :2px    0.2026   0.1074  -0.2936  -0.0245   0.1158  -0.1812   0.3681
  23 C   :2py   -0.0655   0.3217   0.0573  -0.1456  -0.0029  -0.0909   0.1169
  24 H   :1s    -0.1792  -0.0250   0.2681   0.0523  -0.1159  -0.1078   0.3915
  25 H   :1s     0.0214   0.2626  -0.1431  -0.1355   0.0898   0.3586  -0.2525

 Molecular orbitals for symmetry species 2  (Au )
 ------------------------------------------------

    Orbital         1        2        3        4
   1 C   :2pz    0.3376  -0.0180  -0.4426   0.0319
   2 C   :2pz    0.2980  -0.1792   0.2323  -0.5827
   3 C   :2pz    0.2972  -0.1766   0.2775   0.5532
   4 C   :2pz    0.1740   0.4138  -0.2562  -0.0038
   5 C   :2pz    0.0924   0.4180   0.4496  -0.0108

 Molecular orbitals for symmetry species 3  (Bu )
 ------------------------------------------------

    Orbital        11       12       13       14       15       16       17
   1 C   :1s     0.0695   0.0227  -0.0026   0.0032   0.0103   0.0337  -0.0583
   2 C   :1s    -0.2354  -0.0774   0.0088  -0.0117  -0.0448  -0.1981   0.3382
   3 C   :2px   -0.0851   0.2569   0.0522   0.0946  -0.1707  -0.3144   0.0687
   4 C   :2py    0.0609   0.0574  -0.1035  -0.2252  -0.1948  -0.0279   0.4668
   5 C   :1s    -0.0474   0.0013  -0.0285  -0.0176  -0.0069  -0.0059   0.0250
   6 C   :1s     0.1629  -0.0016   0.0907   0.0636   0.0212   0.0286  -0.1521
   7 C   :2px    0.1870   0.0448  -0.3389  -0.0162  -0.0751  -0.3369  -0.0423
   8 C   :2py   -0.1350   0.1121  -0.0292   0.2454  -0.0159   0.1137   0.2609
   9 C   :1s    -0.0440   0.0118   0.0197  -0.0071  -0.0137  -0.0159   0.0051
  10 C   :1s     0.1529  -0.0368  -0.0622   0.0204   0.0473   0.0966  -0.0230
  11 C   :2px   -0.0439  -0.2552  -0.0976  -0.1336   0.1382  -0.2700  -0.1376
  12 C   :2py    0.2061   0.0342   0.2774  -0.1566  -0.0429   0.0944   0.3944
  13 H   :1s     0.2267   0.0366  -0.2523   0.0075  -0.0467   0.3219   0.1157
  14 H   :1s     0.2306   0.1326   0.2182  -0.0469  -0.0539  -0.2709  -0.4057
  15 C   :1s    -0.0153  -0.0026  -0.0019  -0.0011   0.0027   0.0077   0.0934
  16 C   :1s     0.0423   0.0149   0.0046  -0.0124  -0.0066  -0.0472  -0.5459
  17 C   :2px    0.0079  -0.0229   0.0407  -0.1237   0.2625  -0.3984   0.1703
  18 C   :2py    0.1306  -0.1852   0.0562   0.2462   0.0830  -0.0831   0.2913
  19 H   :1s     0.0281   0.0124   0.0167  -0.1456   0.2591   0.4339   0.1587
  20 C   :1s     0.0122   0.0011   0.0045  -0.0205   0.0035   0.0025  -0.0509
  21 C   :1s    -0.0508   0.0075  -0.0185   0.0566  -0.0144  -0.0192   0.2976
  22 C   :2px    0.0242  -0.2481   0.0737   0.0270  -0.2347  -0.3422   0.1447
  23 C   :2py   -0.1515   0.0516  -0.0215  -0.2720  -0.0588  -0.0505   0.0983
  24 H   :1s    -0.0422   0.2155  -0.0540  -0.0514   0.2310  -0.3231   0.0107
  25 H   :1s    -0.1051  -0.0871   0.0152  -0.1579  -0.2124   0.2837  -0.3521

 Molecular orbitals for symmetry species 4  (Bg )
 ------------------------------------------------

    Orbital         1        2        3        4        5
   1 C   :2pz    0.3490  -0.0058   0.3876   0.0234  -0.5435
   2 C   :2pz    0.1316  -0.4636   0.2151  -0.2407   0.4642
   3 C   :2pz    0.1321   0.4575   0.2308  -0.2322   0.4669
   4 C   :2pz    0.3765  -0.0004  -0.2237   0.5222   0.2877
   5 C   :2pz    0.2714   0.0096  -0.3974  -0.5231  -0.1561



 >>>> Total CPU  time used in SIRIUS :     16.62 seconds
 >>>> Total wall time used in SIRIUS :     16.64 seconds

 
     Date and time (Linux)  : Sun Jan 13 23:04:49 2019
     Host name              : osmium                                  


                     .---------------------------------------.
                     | End of Wave Function Section (SIRIUS) |
                     `---------------------------------------'



                 .------------------------------------------------.
                 | Starting in Dynamic Property Section (RESPONS) |
                 `------------------------------------------------'


 ------------------------------------------------------------------------------
  RESPONSE  -  an MCSCF, MC-srDFT, DFT, and SOPPA response property program
 ------------------------------------------------------------------------------


 <<<<<<<<<< OUTPUT FROM RESPONSE INPUT PROCESSING >>>>>>>>>>




  Linear Response single residue calculation
 -------------------------------------------


    4 input options by user.

 Print level                                    : IPRPP  =   4
 Maximum number of iterations for eigenval.eqs. : MAXITP =  60
 Threshold for convergence of eigenvalue eqs.   : THCPP  = 1.000D-03
 Maximum iterations in optimal orbital algorithm: MAXITO =   5

      5 Excitation energies are calculated for symmetry no.    1

      5 Excitation energies are calculated for symmetry no.    2

      1 property residues are calculated with labels:

               ZDIPLEN 

      5 Excitation energies are calculated for symmetry no.    3

      2 property residues are calculated with labels:

               XDIPLEN 
               YDIPLEN 

      5 Excitation energies are calculated for symmetry no.    4

 Integral transformation: Total CPU and WALL times (sec)       0.177       0.178


   SCF energy         :     -382.050716652386427
 -- inactive part     :     -827.987696628994399
 -- nuclear repulsion :      445.936979976607972


                    *****************************************
                    *** DFT response calculation (TD-DFT) ***
                    *****************************************



 >>>>>>>>>> Linear response calculation
 >>>>>>>>>> Symmetry of excitation/property operator(s)    1  ( Ag )

 Number of excitations of this symmetry            5
 Number of response properties of this symmetry    0
 Number of C6/C8 properties of this symmetry       0


 Perturbation symmetry.     KSYMOP:       1
 Perturbation spin symmetry.TRPLET:       F
 Orbital variables.         KZWOPT:     312
 Configuration variables.   KZCONF:       0
 Total number of variables. KZVAR :     312
 Electrons in DFTMOMO:   69.99998079667081


                         Matrix < abs(phi_p) abs(phi_q) >
                         --------------------------------


               Column   1     Column   2     Column   3     Column   4     Column   5     Column   6     Column   7     Column   8
       1       0.99999999     0.07980240     0.04473966     0.08217658     0.00111469     0.15996350     0.05209575     0.11895647
       2       0.07980240     1.00000037     0.02692800     0.05235827     0.02466024     0.08002977     0.17049583     0.10350131
       3       0.04473966     0.02692800     1.00000033     0.97807352     0.00185678     0.18971354     0.08636330     0.12910476
       4       0.08217658     0.05235827     0.97807352     1.00000033     0.00336483     0.19632963     0.09261037     0.12830219
       5       0.00111469     0.02466024     0.00185678     0.00336483     1.00000050     0.03616016     0.16446654     0.11689025
       6       0.15996350     0.08002977     0.18971354     0.19632963     0.03616016     0.99998797     0.61067062     0.70866298
       7       0.05209575     0.17049583     0.08636330     0.09261037     0.16446654     0.61067062     0.99999862     0.71395203
       8       0.11895647     0.10350131     0.12910476     0.12830219     0.11689025     0.70866298     0.71395203     0.99999844
       9       0.11863391     0.04794799     0.18183084     0.19224744     0.05526550     0.76612983     0.50279161     0.62504671
      10       0.10150435     0.09078266     0.13606660     0.13667627     0.08343847     0.72363788     0.63528640     0.79874360
      11       0.08126164     0.10980402     0.10278046     0.10946362     0.08855566     0.66205597     0.76646572     0.74627368
      12       0.03880806     0.11378331     0.07569408     0.07758382     0.12922727     0.46253967     0.78090798     0.70192063
      13       0.05539993     0.09445168     0.08785595     0.09356260     0.11380210     0.52405247     0.74303307     0.70773874
      14       0.11680406     0.10423990     0.13994504     0.14858807     0.05778388     0.74642628     0.64058013     0.80201843
      15       0.12014493     0.07479277     0.13763406     0.13864151     0.04375487     0.74177383     0.56445673     0.70914608
      16       0.13806319     0.15066620     0.13804484     0.14587658     0.08460288     0.65259587     0.64287747     0.70276519
      17       0.06074865     0.14210700     0.12371933     0.12963564     0.11640046     0.51634958     0.67908574     0.66524536
      18       0.12359647     0.09672590     0.17635820     0.17680526     0.15815018     0.58911446     0.63189675     0.74041164
      19       0.18845931     0.14272376     0.19035031     0.19851962     0.09494861     0.69952699     0.58944638     0.72247869
      20       0.12460924     0.06202030     0.21202273     0.21684000     0.14764033     0.62990714     0.57435211     0.74962412
      21       0.20797789     0.12336879     0.17321088     0.18404890     0.10698259     0.72153536     0.63144091     0.64381226
      22       0.07040501     0.09693939     0.23723499     0.23607183     0.09829641     0.65904338     0.53769540     0.59189679
      23       0.12156867     0.17837672     0.16492447     0.17543956     0.16082682     0.60155763     0.71611034     0.67816236
      24       0.12546854     0.19963114     0.16619019     0.17204922     0.18086954     0.57877077     0.72957826     0.68612895
      25       0.19907744     0.15999806     0.21780720     0.22546312     0.12499933     0.65513739     0.58871002     0.67652942
      26       0.12861577     0.07008779     0.14780353     0.15220980     0.03393461     0.83844599     0.53213616     0.61464473
      27       0.01916846     0.14460994     0.08424029     0.08769298     0.14332163     0.50075209     0.80759132     0.58763171
      28       0.14740201     0.09095592     0.11480669     0.11847904     0.14204829     0.65255410     0.64895367     0.69412225
      29       0.02536461     0.00850004     0.24696698     0.24610954     0.00389978     0.62970576     0.26538021     0.40613593
      30       0.16109895     0.16897443     0.08073445     0.08720463     0.11703841     0.59622656     0.65567509     0.61489356
      31       0.99999861     0.07925543     0.04396836     0.08135658     0.00108694     0.15948261     0.05173733     0.11859419
      32       0.07929917     0.99998922     0.02269911     0.04779291     0.02466519     0.07910321     0.17008552     0.10294859
      33       0.08087788     0.04634510     0.99896070     0.97442602     0.00304467     0.19454302     0.09010938     0.13430486
      34       0.04524799     0.03109615     0.97447340     0.99891609     0.00173835     0.19056187     0.08816151     0.12221788
      35       0.00109920     0.02464457     0.00153573     0.00299726     1.00000041     0.03610232     0.16443827     0.11685715
      36       0.15224561     0.16519446     0.08659297     0.09339291     0.11472574     0.74670392     0.84925296     0.76692910
      37       0.06793565     0.02163906     0.24086709     0.24584505     0.02062118     0.84128214     0.44730557     0.65938938
      38       0.14545404     0.09971738     0.12316544     0.12410032     0.15233971     0.75478377     0.81096642     0.74861341
      39       0.07103608     0.14590325     0.08597249     0.09288483     0.12510628     0.57244720     0.75551188     0.80572322
      40       0.08775043     0.10341066     0.11231564     0.11764176     0.09013148     0.65011539     0.77995373     0.78228733
      41       0.10866889     0.06363642     0.14888910     0.15431136     0.06312511     0.66777193     0.53724128     0.71616570
      42       0.11257062     0.07783506     0.10589792     0.10281838     0.09664851     0.68103061     0.68114574     0.78854358
      43       0.05387293     0.03270645     0.17242754     0.17757709     0.03015984     0.71816460     0.44576486     0.56857085
      44       0.10024593     0.11067536     0.11964713     0.12826631     0.10895864     0.70178338     0.76885801     0.79363629
      45       0.10095833     0.10558412     0.06418001     0.06496027     0.08941341     0.55386651     0.73328295     0.73483375
      46       0.11076966     0.12534714     0.12957363     0.13770209     0.10029826     0.59482396     0.70091452     0.70197362
      47       0.17270717     0.17018390     0.14330320     0.14648040     0.08814039     0.67849944     0.63030313     0.71145277
      48       0.12470420     0.10033319     0.17607963     0.17559010     0.14406931     0.58741767     0.57895645     0.74119918
      49       0.09412429     0.12646644     0.14808886     0.16612167     0.09340890     0.57676365     0.57716054     0.60074967
      50       0.10672902     0.11156390     0.14701383     0.15012331     0.16002715     0.54312081     0.64532747     0.73877074
      51       0.16546080     0.09552023     0.20334157     0.20717424     0.13325639     0.66256998     0.58122891     0.70206855
      52       0.12321466     0.09801357     0.27933216     0.28693762     0.07864929     0.67759951     0.53393540     0.71943352
      53       0.14613858     0.17102534     0.14413614     0.14421998     0.16186099     0.55518891     0.68751224     0.63803993
      54       0.14562209     0.23255328     0.10919397     0.12175982     0.20756241     0.53684726     0.74710317     0.63148923
      55       0.20709256     0.11145989     0.26119941     0.26642274     0.06082963     0.72877137     0.50460863     0.55581861
      56       0.12851838     0.13698902     0.06534813     0.07087736     0.09563874     0.64667841     0.71547888     0.62662764
      57       0.01732188     0.00641854     0.21594210     0.21583266     0.00345118     0.66377098     0.29585595     0.43544532
      58       0.13604111     0.08426622     0.10564229     0.10917310     0.13267674     0.67722848     0.67168806     0.62632075
      59       0.02160077     0.16609745     0.10289692     0.10627688     0.16293402     0.47150121     0.72544757     0.60876747
      60       0.17400054     0.09715474     0.19606641     0.20073655     0.04788595     0.70786561     0.47538754     0.57473770

               Column   9     Column  10     Column  11     Column  12     Column  13     Column  14     Column  15     Column  16
       1       0.11863391     0.10150435     0.08126164     0.03880806     0.05539993     0.11680406     0.12014493     0.13806319
       2       0.04794799     0.09078266     0.10980402     0.11378331     0.09445168     0.10423990     0.07479277     0.15066620
       3       0.18183084     0.13606660     0.10278046     0.07569408     0.08785595     0.13994504     0.13763406     0.13804484
       4       0.19224744     0.13667627     0.10946362     0.07758382     0.09356260     0.14858807     0.13864151     0.14587658
       5       0.05526550     0.08343847     0.08855566     0.12922727     0.11380210     0.05778388     0.04375487     0.08460288
       6       0.76612983     0.72363788     0.66205597     0.46253967     0.52405247     0.74642628     0.74177383     0.65259587
       7       0.50279161     0.63528640     0.76646572     0.78090798     0.74303307     0.64058013     0.56445673     0.64287747
       8       0.62504671     0.79874360     0.74627368     0.70192063     0.70773874     0.80201843     0.70914608     0.70276519
       9       1.00000191     0.68132019     0.66240820     0.48517521     0.60639963     0.70043511     0.79578199     0.69977384
      10       0.68132019     0.99999388     0.73117617     0.63028274     0.66410721     0.76160910     0.78674389     0.72240535
      11       0.66240820     0.73117617     0.99999534     0.58282904     0.83752719     0.68646459     0.76262444     0.70287914
      12       0.48517521     0.63028274     0.58282904     0.99999991     0.67171924     0.63560387     0.52785496     0.63449933
      13       0.60639963     0.66410721     0.83752719     0.67171924     0.99999981     0.52950060     0.71752027     0.61733005
      14       0.70043511     0.76160910     0.68646459     0.63560387     0.52950060     0.99999975     0.65729788     0.73425825
      15       0.79578199     0.78674389     0.76262444     0.52785496     0.71752027     0.65729788     0.99999985     0.76511147
      16       0.69977384     0.72240535     0.70287914     0.63449933     0.61733005     0.73425825     0.76511147     0.99999688
      17       0.55259821     0.68419699     0.77464041     0.65977645     0.78026595     0.61049421     0.69145549     0.72975923
      18       0.64974298     0.69114625     0.69470098     0.60929971     0.73419228     0.64780102     0.65167704     0.69495460
      19       0.73453415     0.71168911     0.68410845     0.55976043     0.67872570     0.67852520     0.75372151     0.76284807
      20       0.62235532     0.72308373     0.60466534     0.63542321     0.61515646     0.67081656     0.67646058     0.74994574
      21       0.62502838     0.72545081     0.67816617     0.51282777     0.66741091     0.65554526     0.71355685     0.68307635
      22       0.65115426     0.68735505     0.67864560     0.50418706     0.53906207     0.65534063     0.73394355     0.76141256
      23       0.56161794     0.62138705     0.69130461     0.70257744     0.70937179     0.63776103     0.68314892     0.73839717
      24       0.57584150     0.62643972     0.71715111     0.59925652     0.67388242     0.73297889     0.55625001     0.65916958
      25       0.64929149     0.59634792     0.55886497     0.55492180     0.56555928     0.66298987     0.66107900     0.60730605
      26       0.64764502     0.57151885     0.50635500     0.37250283     0.40359075     0.58053586     0.55596228     0.52000261
      27       0.42422960     0.50575078     0.53606295     0.56907021     0.52191804     0.46329599     0.39421070     0.46699188
      28       0.54073133     0.56298303     0.52722550     0.48184951     0.48838908     0.54601708     0.49259924     0.52668127
      29       0.60866983     0.44283860     0.33906338     0.21957408     0.27585309     0.42036479     0.44218231     0.35777660
      30       0.46278737     0.54928064     0.50971656     0.47158857     0.47032565     0.50076049     0.46602032     0.52122634
      31       0.11836328     0.10124257     0.08087082     0.03854323     0.05510946     0.11644681     0.11994131     0.13771980
      32       0.04704304     0.09020934     0.10929878     0.11345698     0.09402092     0.10353422     0.07419181     0.15002768
      33       0.18448001     0.14019988     0.10629468     0.07860329     0.09048073     0.14377233     0.14172324     0.14390930
      34       0.18869576     0.13160060     0.10518230     0.07407512     0.09037146     0.14396748     0.13380759     0.13889048
      35       0.05520375     0.08340288     0.08852187     0.12920559     0.11377259     0.05773753     0.04371806     0.08455924
      36       0.66519271     0.62726635     0.74311625     0.68235553     0.66678579     0.70847295     0.68232579     0.69093152
      37       0.76971932     0.71698555     0.58117541     0.39121230     0.48153744     0.68751099     0.70503510     0.59833895
      38       0.70039615     0.71319476     0.73208737     0.69964905     0.69090953     0.69318517     0.69366858     0.65859719
      39       0.58763418     0.78376422     0.79354317     0.71616568     0.81946843     0.64054158     0.68995576     0.61594684
      40       0.70398615     0.70978258     0.75619961     0.79518694     0.76172885     0.75964778     0.73756445     0.74139705
      41       0.78004316     0.83676283     0.68816687     0.60287323     0.56364104     0.76848755     0.76367722     0.77721526
      42       0.64437576     0.72712571     0.75991811     0.56500597     0.75234652     0.65865152     0.76971148     0.65248695
      43       0.72056423     0.72717677     0.70861718     0.39608612     0.54385048     0.68202898     0.74495871     0.66701675
      44       0.66656283     0.70761702     0.66073060     0.79466304     0.70871924     0.81395977     0.64192040     0.64637488
      45       0.53189510     0.69669468     0.79791902     0.68364111     0.80377957     0.62527563     0.74990263     0.66751859
      46       0.57709732     0.71760210     0.78027357     0.65345849     0.74096614     0.64988323     0.79148996     0.85809897
      47       0.66488541     0.67437447     0.62817088     0.62772809     0.55429450     0.79443155     0.65927095     0.85464886
      48       0.68255981     0.74445958     0.68910686     0.60864477     0.72345462     0.65652044     0.68802122     0.75098008
      49       0.66052296     0.67303032     0.68009822     0.57443370     0.69614305     0.56716054     0.71985017     0.74117832
      50       0.53131324     0.75864909     0.69520434     0.64566450     0.68225157     0.64633576     0.64641298     0.71483795
      51       0.75049631     0.64491903     0.61531689     0.66761743     0.62208987     0.69818875     0.73165430     0.75482719
      52       0.63554501     0.69458722     0.63311412     0.46327920     0.56827831     0.69534906     0.66467620     0.63247398
      53       0.60272641     0.63376532     0.70769171     0.59844142     0.73620224     0.60391869     0.69117950     0.71328088
      54       0.48749836     0.53829413     0.58309433     0.69747890     0.60505185     0.60047202     0.52629205     0.60106852
      55       0.58499397     0.63065357     0.62393118     0.38306978     0.49260048     0.66014622     0.67479857     0.65539975
      56       0.50827181     0.51246980     0.53721972     0.49521903     0.46935196     0.52832237     0.48439881     0.52529280
      57       0.57691868     0.46140108     0.35079464     0.23118555     0.28601973     0.44093278     0.43121785     0.35429478
      58       0.56883206     0.55548810     0.52826301     0.49452834     0.48422049     0.51417278     0.50419046     0.51270158
      59       0.43798882     0.51896958     0.51893259     0.52847235     0.51313272     0.45651724     0.40901804     0.46637913
      60       0.60417358     0.54575941     0.47376211     0.35603451     0.38945065     0.53101385     0.52013139     0.51980323

               Column  17     Column  18     Column  19     Column  20     Column  21     Column  22     Column  23     Column  24
       1       0.06074865     0.12359647     0.18845931     0.12460924     0.20797789     0.07040501     0.12156867     0.12546854
       2       0.14210700     0.09672590     0.14272376     0.06202030     0.12336879     0.09693939     0.17837672     0.19963114
       3       0.12371933     0.17635820     0.19035031     0.21202273     0.17321088     0.23723499     0.16492447     0.16619019
       4       0.12963564     0.17680526     0.19851962     0.21684000     0.18404890     0.23607183     0.17543956     0.17204922
       5       0.11640046     0.15815018     0.09494861     0.14764033     0.10698259     0.09829641     0.16082682     0.18086954
       6       0.51634958     0.58911446     0.69952699     0.62990714     0.72153536     0.65904338     0.60155763     0.57877077
       7       0.67908574     0.63189675     0.58944638     0.57435211     0.63144091     0.53769540     0.71611034     0.72957826
       8       0.66524536     0.74041164     0.72247869     0.74962412     0.64381226     0.59189679     0.67816236     0.68612895
       9       0.55259821     0.64974298     0.73453415     0.62235532     0.62502838     0.65115426     0.56161794     0.57584150
      10       0.68419699     0.69114625     0.71168911     0.72308373     0.72545081     0.68735505     0.62138705     0.62643972
      11       0.77464041     0.69470098     0.68410845     0.60466534     0.67816617     0.67864560     0.69130461     0.71715111
      12       0.65977645     0.60929971     0.55976043     0.63542321     0.51282777     0.50418706     0.70257744     0.59925652
      13       0.78026595     0.73419228     0.67872570     0.61515646     0.66741091     0.53906207     0.70937179     0.67388242
      14       0.61049421     0.64780102     0.67852520     0.67081656     0.65554526     0.65534063     0.63776103     0.73297889
      15       0.69145549     0.65167704     0.75372151     0.67646058     0.71355685     0.73394355     0.68314892     0.55625001
      16       0.72975923     0.69495460     0.76284807     0.74994574     0.68307635     0.76141256     0.73839717     0.65916958
      17       1.00000017     0.73222237     0.79155151     0.64242055     0.71112448     0.67060842     0.74537160     0.67010467
      18       0.73222237     1.00000012     0.74766755     0.83725697     0.67382095     0.65425167     0.69325863     0.69985908
      19       0.79155151     0.74766755     0.99999999     0.69908674     0.79792294     0.65731042     0.72307128     0.69137627
      20       0.64242055     0.83725697     0.69908674     1.00000003     0.64973488     0.69410930     0.70254942     0.61038188
      21       0.71112448     0.67382095     0.79792294     0.64973488     0.99999978     0.63125422     0.71186247     0.70703652
      22       0.67060842     0.65425167     0.65731042     0.69410930     0.63125422     0.99999984     0.64904736     0.61575369
      23       0.74537160     0.69325863     0.72307128     0.70254942     0.71186247     0.64904736     0.99999957     0.67169673
      24       0.67010467     0.69985908     0.69137627     0.61038188     0.70703652     0.61575369     0.67169673     1.00000008
      25       0.55176350     0.61813404     0.71534658     0.63052025     0.64773804     0.60545552     0.68950588     0.74138911
      26       0.40743079     0.52357857     0.63285575     0.55032706     0.57444740     0.49580637     0.48067984     0.48634348
      27       0.48964957     0.52030474     0.50872842     0.47252736     0.46705660     0.43596657     0.52967658     0.57366401
      28       0.44512624     0.61424409     0.64677739     0.58776732     0.57535626     0.45428638     0.55205819     0.57421324
      29       0.31210795     0.43757234     0.45205440     0.50929932     0.38800698     0.49780119     0.33600743     0.33292684
      30       0.45524262     0.54325424     0.65171577     0.50291576     0.57856199     0.41013412     0.54707976     0.58297767
      31       0.06050424     0.12334274     0.18823222     0.12432721     0.20770886     0.07008047     0.12125726     0.12516924
      32       0.14154833     0.09596899     0.14184073     0.06104230     0.12251869     0.09593331     0.17758916     0.19889525
      33       0.12708965     0.18132169     0.19720421     0.21547903     0.18017495     0.24001439     0.17021201     0.17266414
      34       0.12531479     0.17092011     0.19046045     0.21223753     0.17612057     0.23213236     0.16905753     0.16445536
      35       0.11636028     0.15810263     0.09488854     0.14757606     0.10692722     0.09823068     0.16077257     0.18082144
      36       0.66086481     0.62035380     0.73942033     0.54816743     0.65754702     0.55571130     0.68792102     0.69210367
      37       0.46120061     0.56936174     0.57081600     0.67666051     0.58291319     0.69471198     0.50788797     0.49313722
      38       0.64512761     0.67647714     0.73707112     0.64414930     0.69858152     0.61201842     0.65392737     0.71878556
      39       0.75420297     0.75119846     0.73296101     0.64773079     0.68408328     0.51178586     0.69073262     0.66920610
      40       0.72735661     0.66932817     0.69835447     0.67678668     0.64794204     0.56405154     0.78590303     0.65490335
      41       0.61342665     0.63628718     0.68075692     0.69664714     0.61811590     0.75102687     0.55343638     0.60516713
      42       0.63658571     0.71954596     0.65789792     0.64711958     0.67528947     0.60409863     0.62876251     0.68873008
      43       0.53501812     0.55684338     0.56570099     0.61637199     0.58826340     0.82321850     0.51168355     0.50469770
      44       0.66245972     0.66168324     0.70393344     0.65535706     0.66329852     0.55382507     0.69660001     0.74962454
      45       0.76139563     0.67637300     0.68969761     0.59682994     0.70931045     0.49682950     0.76171884     0.62782347
      46       0.87282320     0.71034772     0.72997672     0.72946344     0.75944659     0.73141059     0.79925902     0.64903270
      47       0.66197193     0.71277106     0.75738105     0.68030301     0.71201408     0.66831809     0.67313715     0.73013654
      48       0.77624560     0.95036231     0.83931712     0.83006551     0.70346230     0.68409623     0.68263604     0.67840843
      49       0.78464510     0.62571139     0.82191809     0.65118890     0.76242766     0.65365247     0.72815840     0.57658713
      50       0.82663400     0.81852205     0.77867988     0.80686349     0.67157821     0.67331987     0.71714590     0.67483137
      51       0.68249254     0.73294984     0.80822577     0.79049500     0.65352054     0.71377745     0.78175062     0.64139208
      52       0.61415121     0.64323408     0.67964708     0.72424113     0.67520828     0.66300041     0.65417159     0.71476975
      53       0.76349932     0.73828375     0.76797014     0.61976862     0.77966355     0.57085338     0.76860635     0.78443516
      54       0.60958329     0.58621679     0.63951818     0.56949768     0.57956783     0.56512395     0.71288673     0.76837809
      55       0.54281149     0.60868578     0.67908341     0.64051765     0.81565523     0.78401531     0.64049404     0.66575238
      56       0.46231881     0.51180100     0.63024040     0.46244347     0.54630541     0.41749478     0.52502071     0.55813873
      57       0.29495442     0.42462046     0.41397856     0.50968709     0.39043578     0.47404449     0.33486488     0.32665349
      58       0.45573541     0.57687458     0.64798058     0.55305947     0.57160880     0.47009347     0.52690632     0.56444061
      59       0.49496839     0.55558678     0.54865161     0.50347860     0.47286523     0.44629655     0.54747485     0.58082549
      60       0.42021907     0.55704838     0.68024810     0.58177488     0.58472823     0.50708481     0.50165804     0.52021853

               Column  25     Column  26     Column  27     Column  28     Column  29     Column  30     Column  31     Column  32
       1       0.19907744     0.12861577     0.01916846     0.14740201     0.02536461     0.16109895     0.99999861     0.07929917
       2       0.15999806     0.07008779     0.14460994     0.09095592     0.00850004     0.16897443     0.07925543     0.99998922
       3       0.21780720     0.14780353     0.08424029     0.11480669     0.24696698     0.08073445     0.04396836     0.02269911
       4       0.22546312     0.15220980     0.08769298     0.11847904     0.24610954     0.08720463     0.08135658     0.04779291
       5       0.12499933     0.03393461     0.14332163     0.14204829     0.00389978     0.11703841     0.00108694     0.02466519
       6       0.65513739     0.83844599     0.50075209     0.65255410     0.62970576     0.59622656     0.15948261     0.07910321
       7       0.58871002     0.53213616     0.80759132     0.64895367     0.26538021     0.65567509     0.05173733     0.17008552
       8       0.67652942     0.61464473     0.58763171     0.69412225     0.40613593     0.61489356     0.11859419     0.10294859
       9       0.64929149     0.64764502     0.42422960     0.54073133     0.60866983     0.46278737     0.11836328     0.04704304
      10       0.59634792     0.57151885     0.50575078     0.56298303     0.44283860     0.54928064     0.10124257     0.09020934
      11       0.55886497     0.50635500     0.53606295     0.52722550     0.33906338     0.50971656     0.08087082     0.10929878
      12       0.55492180     0.37250283     0.56907021     0.48184951     0.21957408     0.47158857     0.03854323     0.11345698
      13       0.56555928     0.40359075     0.52191804     0.48838908     0.27585309     0.47032565     0.05510946     0.09402092
      14       0.66298987     0.58053586     0.46329599     0.54601708     0.42036479     0.50076049     0.11644681     0.10353422
      15       0.66107900     0.55596228     0.39421070     0.49259924     0.44218231     0.46602032     0.11994131     0.07419181
      16       0.60730605     0.52000261     0.46699188     0.52668127     0.35777660     0.52122634     0.13771980     0.15002768
      17       0.55176350     0.40743079     0.48964957     0.44512624     0.31210795     0.45524262     0.06050424     0.14154833
      18       0.61813404     0.52357857     0.52030474     0.61424409     0.43757234     0.54325424     0.12334274     0.09596899
      19       0.71534658     0.63285575     0.50872842     0.64677739     0.45205440     0.65171577     0.18823222     0.14184073
      20       0.63052025     0.55032706     0.47252736     0.58776732     0.50929932     0.50291576     0.12432721     0.06104230
      21       0.64773804     0.57444740     0.46705660     0.57535626     0.38800698     0.57856199     0.20770886     0.12251869
      22       0.60545552     0.49580637     0.43596657     0.45428638     0.49780119     0.41013412     0.07008047     0.09593331
      23       0.68950588     0.48067984     0.52967658     0.55205819     0.33600743     0.54707976     0.12125726     0.17758916
      24       0.74138911     0.48634348     0.57366401     0.57421324     0.33292684     0.58297767     0.12516924     0.19889525
      25       1.00000012     0.56284148     0.48537893     0.58228565     0.43440718     0.57528912     0.19882935     0.15900574
      26       0.56284148     1.00000299     0.62891324     0.82844191     0.75845406     0.76839144     0.12829675     0.06937919
      27       0.48537893     0.62891324     1.00000027     0.79014559     0.39111323     0.80471820     0.01889390     0.14423668
      28       0.58228565     0.82844191     0.79014559     0.99999986     0.49644596     0.91682458     0.14716837     0.09042224
      29       0.43440718     0.75845406     0.39111323     0.49644596     1.00000025     0.35830045     0.02511261     0.00739904
      30       0.57528912     0.76839144     0.80471820     0.91682458     0.35830045     0.99999997     0.16091798     0.16860229
      31       0.19882935     0.12829675     0.01889390     0.14716837     0.02511261     0.16091798     1.00000000     0.07875611
      32       0.15900574     0.06937919     0.14423668     0.09042224     0.00739904     0.16860229     0.07875611     1.00000037
      33       0.22521360     0.15153284     0.08668754     0.11996346     0.24623970     0.08775044     0.08010398     0.04215608
      34       0.21663957     0.14780088     0.08467068     0.11263273     0.24597688     0.07949136     0.04443571     0.02651185
      35       0.12493402     0.03389312     0.14329709     0.14201732     0.00382998     0.11701638     0.00107178     0.02465142
      36       0.68529198     0.66999954     0.69423733     0.70100098     0.32643615     0.71789095     0.15211199     0.16479984
      37       0.60073803     0.70340943     0.39450877     0.50992033     0.74100341     0.39484581     0.06734043     0.02047785
      38       0.68315917     0.66080325     0.65892195     0.69533163     0.41720478     0.66095402     0.14533562     0.09919270
[...]
      55       0.32084802     0.24348841     0.28627706     0.28521546     0.30439194     0.18050223     1.00000000     0.18820625
      56       0.16828331     0.24785529     0.23694181     0.13966271     0.31513897     0.34686463     0.18820625     1.00000000
      57       0.15866490     0.14949324     0.25638232     0.36195786     0.10411610     0.05412259     0.26638220     0.12338475
      58       0.15839177     0.31952514     0.30560305     0.18253932     0.31553937     0.30937246     0.23268597     0.81018632
      59       0.18135926     0.30787945     0.18898849     0.13435024     0.29236766     0.34421836     0.10235357     0.72887354
      60       0.18446370     0.21124967     0.33237696     0.31661271     0.24330874     0.16839804     0.32691016     0.60675648

               Column  57     Column  58     Column  59     Column  60
       1       0.00007668     0.03430088     0.00017340     0.04551260
       2       0.00002566     0.01157973     0.04302794     0.01280363
       3       0.05113263     0.01598874     0.01220536     0.04620829
       4       0.05116103     0.01554843     0.01237104     0.04600194
       5       0.00001537     0.03610516     0.04315843     0.00372156
       6       0.39449319     0.35462973     0.12520696     0.40525558
       7       0.08096251     0.36339492     0.41708037     0.13060366
       8       0.22012557     0.33890488     0.29379138     0.28753225
       9       0.32529702     0.25034984     0.11097446     0.31630415
      10       0.23500778     0.26262205     0.20114913     0.25738229
      11       0.14522802     0.22368244     0.23127897     0.17778682
      12       0.05230272     0.21399243     0.22766382     0.07368667
      13       0.09372433     0.19894672     0.21620054     0.10297167
      14       0.22074449     0.21197644     0.15004510     0.23601258
      15       0.19172453     0.21945980     0.10078477     0.23376208
      16       0.13817700     0.23307011     0.21585296     0.25524263
      17       0.10974339     0.16957576     0.22851073     0.13709201
      18       0.24618347     0.34101711     0.30128248     0.28404770
      19       0.24250657     0.40244581     0.25850098     0.45130525
      20       0.34826227     0.29218495     0.22987747     0.32433253
      21       0.16019416     0.31133230     0.16756561     0.31920167
      22       0.27431634     0.16583739     0.14260467     0.22938764
      23       0.14943231     0.25491766     0.29783413     0.20392200
      24       0.12892447     0.28151108     0.31811061     0.20025840
      25       0.20297359     0.29229831     0.18958430     0.32020959
      26       0.72477416     0.70031816     0.29091050     0.91123582
      27       0.17867401     0.68033312     0.94433466     0.28288444
      28       0.31408097     0.94690741     0.67360550     0.71991133
      29       0.95469337     0.30875497     0.20123323     0.70205086
      30       0.12691205     0.78766230     0.75066624     0.65143221
      31       0.00007439     0.03430451     0.00017098     0.04551555
      32       0.00001749     0.01157650     0.04302617     0.01279524
      33       0.05064364     0.01596896     0.01209914     0.04590579
      34       0.05076431     0.01528933     0.01225178     0.04549591
      35       0.00001534     0.03610516     0.04315843     0.00372153
      36       0.08175511     0.43401901     0.35522424     0.29188138
      37       0.53539032     0.17051636     0.09340554     0.32783856
      38       0.15902126     0.51682619     0.30393651     0.29472716
      39       0.07583263     0.26359854     0.38258959     0.14699644
      40       0.16573342     0.24003176     0.22983286     0.18981338
      41       0.21764441     0.20235271     0.10717283     0.25088063
      42       0.13360122     0.28027605     0.16883339     0.18899845
      43       0.28747082     0.10370965     0.06165260     0.18055450
      44       0.16978482     0.29860141     0.22088943     0.19407177
      45       0.04084051     0.19611035     0.19591250     0.13315577
      46       0.13767004     0.21337129     0.19889040     0.19842690
      47       0.12774257     0.26342261     0.25339596     0.28230361
      48       0.25396558     0.34451671     0.29117141     0.32175169
      49       0.15866490     0.15839177     0.18135926     0.18446370
      50       0.14949324     0.31952514     0.30787945     0.21124967
      51       0.25638232     0.30560305     0.18898849     0.33237696
      52       0.36195786     0.18253932     0.13435024     0.31661271
      53       0.10411610     0.31553937     0.29236766     0.24330874
      54       0.05412259     0.30937246     0.34421836     0.16839804
      55       0.26638220     0.23268597     0.10235357     0.32691016
      56       0.12338475     0.81018632     0.72887354     0.60675648
      57       1.00000000     0.29453204     0.19236896     0.67066588
      58       0.29453204     1.00000000     0.65192480     0.69101960
      59       0.19236896     0.65192480     1.00000000     0.31309654
      60       0.67066588     0.69101960     0.31309654     1.00000000
    ==== End of matrix output ====

 >>> IN RSPPP:
  THCPP,MAXRM    1.0000000000000000E-003         600
  KSYMOP,NGPPP(KSYMOP)            4           0
  LWRK ,LWRK1     63996010    62907010
  KEXCNV,NSIM,LWRK2            5           5     1089601



 <<< EXCITATION ENERGIES AND TRANSITION MOMENT CALCULATION (MCTDHF) >>>

 Operator symmetry = 4  ( Bg ); triplet =   F

           0  START configuration VECTORS USING LOWEST DIAGONAL HESSIAN ELEMENTS
           5  START orbital VECTORS

 ** RSPCTL MICROITERATION NUMBER    1

      Root  Residual tot.,    conf., and orb.    Bnorm      Eigenvalue
      ----------------------------------------------------------------
         1    3.15725D-02  0.00D+00  3.16D-02  7.07D-01    3.08745D-01
         2    4.28019D-02  0.00D+00  4.28D-02  7.07D-01    3.44118D-01
         3    2.75368D-02  0.00D+00  2.75D-02  7.07D-01    3.63148D-01
         4    1.91440D-02  0.00D+00  1.91D-02  7.07D-01    3.66593D-01
         5    2.68817D-02  0.00D+00  2.69D-02  7.07D-01    3.68683D-01

 ** RSPCTL MICROITERATION NUMBER    2

      Root  Residual tot.,    conf., and orb.    Bnorm      Eigenvalue
      ----------------------------------------------------------------
         1    7.72347D-03  0.00D+00  7.72D-03  7.07D-01    3.06621D-01
         2    1.16013D-02  0.00D+00  1.16D-02  7.07D-01    3.40061D-01
         3    8.71633D-03  0.00D+00  8.72D-03  7.07D-01    3.60335D-01
         4    1.17833D-02  0.00D+00  1.18D-02  7.07D-01    3.64402D-01
         5    9.81339D-03  0.00D+00  9.81D-03  7.07D-01    3.66187D-01

 ** RSPCTL MICROITERATION NUMBER    3

      Root  Residual tot.,    conf., and orb.    Bnorm      Eigenvalue
      ----------------------------------------------------------------
         1    7.98857D-04  0.00D+00  7.99D-04  7.07D-01    3.06569D-01
         2    1.57153D-03  0.00D+00  1.57D-03  7.07D-01    3.39887D-01
         3    4.09799D-03  0.00D+00  4.10D-03  7.07D-01    3.60030D-01
         4    7.94151D-03  0.00D+00  7.94D-03  7.07D-01    3.63583D-01
         5    4.49550D-03  0.00D+00  4.50D-03  7.07D-01    3.65570D-01

 ** RSPCTL MICROITERATION NUMBER    4

      Root  Residual tot.,    conf., and orb.    Bnorm      Eigenvalue
      ----------------------------------------------------------------
         1    1.33529D-04  0.00D+00  1.34D-04  7.07D-01    3.06568D-01
         2    3.41267D-04  0.00D+00  3.41D-04  7.07D-01    3.39882D-01
         3    1.22531D-03  0.00D+00  1.23D-03  7.07D-01    3.59990D-01
         4    1.64472D-03  0.00D+00  1.64D-03  7.07D-01    3.63496D-01
         5    9.77354D-04  0.00D+00  9.77D-04  7.07D-01    3.65539D-01

 ** RSPCTL MICROITERATION NUMBER    5

      Root  Residual tot.,    conf., and orb.    Bnorm      Eigenvalue
      ----------------------------------------------------------------
         1    9.41982D-05  0.00D+00  9.42D-05  7.07D-01    3.06568D-01
         2    2.13266D-04  0.00D+00  2.13D-04  7.07D-01    3.39882D-01
         3    2.17115D-04  0.00D+00  2.17D-04  7.07D-01    3.59987D-01
         4    2.45200D-04  0.00D+00  2.45D-04  7.07D-01    3.63491D-01
         5    1.86811D-04  0.00D+00  1.87D-04  7.07D-01    3.65538D-01

 *** THE REQUESTED    5 SOLUTION VECTORS CONVERGED

 Convergence of RSP solution vectors, threshold = 1.00D-03
 ---------------------------------------------------------------
 (dimension of paired reduced space:   46)
 RSP solution vector no.    1; norm of residual   1.33D-04
 RSP solution vector no.    2; norm of residual   3.02D-04
 RSP solution vector no.    3; norm of residual   3.07D-04
 RSP solution vector no.    4; norm of residual   3.47D-04
 RSP solution vector no.    5; norm of residual   2.64D-04

 *** RSPCTL MICROITERATIONS CONVERGED


 **************************************************************************************
 *** @ Excit. operator sym 4 & ref. state sym 1 => excited state symmetry 4  ( Bg ) ***
 **************************************************************************************



 @ Excited state no:    1 in symmetry 4  ( Bg )
 ----------------------------------------------

@ Excitation energy :  0.30656802     au
@                      8.3421402     eV;   67283.903     cm-1;   804.89422     kJ / mol

@ Total energy :      -381.74415     au

 Eigenvector for state no.  1

     Response orbital operator symmetry = 4
     (only scaled elements abs greater than   10.00 % of max abs value)

      Index(r,s)      r      s        (r s) operator      (s r) operator      (r s) scaled        (s r) scaled
      ----------    -----  -----      --------------      --------------      --------------      --------------
          29        15(1)  59(4)        0.1136385839        0.0020238543        0.1607092265        0.0028621622
          93        45(3)  28(2)        0.6892798899        0.0037776909        0.9747889686        0.0053424616

      123 elements with absolute value $ 9.75D-02 not printed.

 The numbers in parenthesis give the orbital symmetry.

     Configuration operator symmetry = 4
     >> NO ELEMENTS <<


                            PBHT MO Overlap Diagnostic
                            --------------------------

  Reference: MJG Peach, P Benfield, T Helgaker, and DJ Tozer.
             J Chem Phys 128, 044118 (2008)


  The dominant contributions:

      I    A    K_IA      K_AI   <|I|*|A|> <I^2*A^2>    Weight   Contrib

     15   59  0.113639  0.002024  0.409018  0.100785  0.012458  0.005095
     45   28  0.689280  0.003778  0.505620  0.211490  0.469913  0.237597

@ Overlap diagnostic LAMBDA =    0.5029


 @ Excited state no:    2 in symmetry 4  ( Bg )
 ----------------------------------------------

@ Excitation energy :  0.33988167     au
@                      9.2486508     eV;   74595.404     cm-1;   892.35919     kJ / mol

@ Total energy :      -381.71083     au

 Eigenvector for state no.  2

     Response orbital operator symmetry = 4
     (only scaled elements abs greater than   10.00 % of max abs value)

      Index(r,s)      r      s        (r s) operator      (s r) operator      (r s) scaled        (s r) scaled
      ----------    -----  -----      --------------      --------------      --------------      --------------
          23        12(1)  59(4)        0.0810538733        0.0007677227        0.1146274869        0.0010857239
          27        14(1)  59(4)       -0.2041522777       -0.0017934512       -0.2887149199       -0.0025363230
          29        15(1)  59(4)       -0.1207144222        0.0002999359       -0.1707159730        0.0004241735
          87        43(3)  28(2)        0.0730293985        0.0002311106        0.1032791657        0.0003268398
          90        44(3)  28(2)        0.6511376528        0.0025080153        0.9208476996        0.0035468692

      120 elements with absolute value $ 9.21D-02 not printed.

 The numbers in parenthesis give the orbital symmetry.

     Configuration operator symmetry = 4
     >> NO ELEMENTS <<


                            PBHT MO Overlap Diagnostic
                            --------------------------

  Reference: MJG Peach, P Benfield, T Helgaker, and DJ Tozer.
             J Chem Phys 128, 044118 (2008)


  The dominant contributions:

      I    A    K_IA      K_AI   <|I|*|A|> <I^2*A^2>    Weight   Contrib

     14   59 -0.204152 -0.001793  0.456517  0.150045  0.040949  0.018694
     15   59 -0.120714  0.000300  0.409018  0.100785  0.014644  0.005990
     44   28  0.651138  0.002508  0.563887  0.246550  0.420720  0.237239

@ Overlap diagnostic LAMBDA =    0.5469


 @ Excited state no:    3 in symmetry 4  ( Bg )
 ----------------------------------------------

@ Excitation energy :  0.35998701     au
@                      9.7957450     eV;   79008.017     cm-1;   945.14576     kJ / mol

@ Total energy :      -381.69073     au

 Eigenvector for state no.  3

     Response orbital operator symmetry = 4
     (only scaled elements abs greater than   10.00 % of max abs value)

      Index(r,s)      r      s        (r s) operator      (s r) operator      (r s) scaled        (s r) scaled
      ----------    -----  -----      --------------      --------------      --------------      --------------
          27        14(1)  59(4)        0.1949847590        0.0010914876        0.2757500907        0.0015435966
          29        15(1)  59(4)       -0.5900003043       -0.0015551551       -0.8343864322       -0.0021993215
          87        43(3)  28(2)        0.1321655364        0.0008653833        0.1869102940        0.0012238367
          90        44(3)  28(2)       -0.0717076550       -0.0009486027       -0.1014099383       -0.0013415269
          93        45(3)  28(2)        0.1193962569       -0.0015829168        0.1688518058       -0.0022385824
          94        45(3)  29(2)       -0.2447776485       -0.0008327729       -0.3461678702       -0.0011777187
          95        45(3)  30(2)       -0.0724146661       -0.0006776137       -0.1024098029       -0.0009582905

      118 elements with absolute value $ 8.34D-02 not printed.

 The numbers in parenthesis give the orbital symmetry.

     Configuration operator symmetry = 4
     >> NO ELEMENTS <<


                            PBHT MO Overlap Diagnostic
                            --------------------------

  Reference: MJG Peach, P Benfield, T Helgaker, and DJ Tozer.
             J Chem Phys 128, 044118 (2008)


  The dominant contributions:

      I    A    K_IA      K_AI   <|I|*|A|> <I^2*A^2>    Weight   Contrib

     14   59  0.194985  0.001091  0.456517  0.150045  0.037595  0.017163
     15   59 -0.590000 -0.001555  0.409018  0.100785  0.346268  0.141630
     43   28  0.132166  0.000865  0.395238  0.108285  0.017240  0.006814
     45   28  0.119396 -0.001583  0.505620  0.211490  0.014636  0.007400
     45   29 -0.244778 -0.000833  0.202127  0.041227  0.059509  0.012028

@ Overlap diagnostic LAMBDA =    0.3941


 @ Excited state no:    4 in symmetry 4  ( Bg )
 ----------------------------------------------

@ Excitation energy :  0.36349070     au
@                      9.8910852     eV;   79776.987     cm-1;   954.34469     kJ / mol

@ Total energy :      -381.68723     au

 Eigenvector for state no.  4

     Response orbital operator symmetry = 4
     (only scaled elements abs greater than   10.00 % of max abs value)

      Index(r,s)      r      s        (r s) operator      (s r) operator      (r s) scaled        (s r) scaled
      ----------    -----  -----      --------------      --------------      --------------      --------------
          27        14(1)  59(4)        0.5370331639        0.0016002463        0.7594795838        0.0022630901
          81        41(3)  28(2)       -0.0555713928       -0.0015391477       -0.0785898174       -0.0021766836
          87        43(3)  28(2)       -0.2909962265       -0.0015665956       -0.4115308101       -0.0022155008
          90        44(3)  28(2)        0.2144464791       -0.0000782687        0.3032731192       -0.0001106887
          91        44(3)  29(2)        0.0636755890        0.0010494286        0.0900508815        0.0014841161
          94        45(3)  29(2)        0.2444540581        0.0007974389        0.3457102443        0.0011277489

      119 elements with absolute value $ 7.59D-02 not printed.

 The numbers in parenthesis give the orbital symmetry.

     Configuration operator symmetry = 4
     >> NO ELEMENTS <<


                            PBHT MO Overlap Diagnostic
                            --------------------------

  Reference: MJG Peach, P Benfield, T Helgaker, and DJ Tozer.
             J Chem Phys 128, 044118 (2008)


  The dominant contributions:

      I    A    K_IA      K_AI   <|I|*|A|> <I^2*A^2>    Weight   Contrib

     14   59  0.537033  0.001600  0.456517  0.150045  0.286688  0.130878
     43   28 -0.290996 -0.001567  0.395238  0.108285  0.083770  0.033109
     44   28  0.214446 -0.000078  0.563887  0.246550  0.046021  0.025951
     45   29  0.244454  0.000797  0.202127  0.041227  0.059369  0.012000

@ Overlap diagnostic LAMBDA =    0.4265


 @ Excited state no:    5 in symmetry 4  ( Bg )
 ----------------------------------------------

@ Excitation energy :  0.36553804     au
@                      9.9467961     eV;   80226.326     cm-1;   959.71998     kJ / mol

@ Total energy :      -381.68518     au

 Eigenvector for state no.  5

     Response orbital operator symmetry = 4
     (only scaled elements abs greater than   10.00 % of max abs value)

      Index(r,s)      r      s        (r s) operator      (s r) operator      (r s) scaled        (s r) scaled
      ----------    -----  -----      --------------      --------------      --------------      --------------
          27        14(1)  59(4)       -0.1407119586       -0.0000566515       -0.1989967602       -0.0000801173
          29        15(1)  59(4)       -0.2501806761       -0.0000287836       -0.3538089052       -0.0000407062
          85        42(3)  29(2)       -0.0663465382       -0.0005586886       -0.0938281741       -0.0007901050
          87        43(3)  28(2)        0.1820776473        0.0000682181        0.2574966783        0.0000964749
          90        44(3)  28(2)       -0.0887494299        0.0000911215       -0.1255106474        0.0001288652
          94        45(3)  29(2)        0.6069578659        0.0002912910        0.8583680457        0.0004119477

      119 elements with absolute value $ 8.58D-02 not printed.

 The numbers in parenthesis give the orbital symmetry.

     Configuration operator symmetry = 4
     >> NO ELEMENTS <<


                            PBHT MO Overlap Diagnostic
                            --------------------------

  Reference: MJG Peach, P Benfield, T Helgaker, and DJ Tozer.
             J Chem Phys 128, 044118 (2008)


  The dominant contributions:

      I    A    K_IA      K_AI   <|I|*|A|> <I^2*A^2>    Weight   Contrib

     14   59 -0.140712 -0.000057  0.456517  0.150045  0.019784  0.009032
     15   59 -0.250181 -0.000029  0.409018  0.100785  0.062576  0.025595
     43   28  0.182078  0.000068  0.395238  0.108285  0.033127  0.013093
     45   29  0.606958  0.000291  0.202127  0.041227  0.368044  0.074392

@ Overlap diagnostic LAMBDA =    0.2601


 Time used in polarization propagator calculation is     25.70 CPU seconds for symmetry 4

 >>>> Total CPU  time used in RESPONSE:  1 minute  52 seconds
 >>>> Total wall time used in RESPONSE:  1 minute  52 seconds


                   .-------------------------------------------.
                   | End of Dynamic Property Section (RESPONS) |
                   `-------------------------------------------'

 >>>> Total CPU  time used in DALTON:  2 minutes 10 seconds
 >>>> Total wall time used in DALTON:  2 minutes 10 seconds

 
     Date and time (Linux)  : Sun Jan 13 23:06:42 2019
     Host name              : osmium                                  
