

     ************************************************************************
     *************** Dalton - An Electronic Structure Program ***************
     ************************************************************************

    This is output from DALTON 2015.0
   ----------------------------------------------------------------------------
    NOTE:
     
    Dalton is an experimental code for the evaluation of molecular
    properties using (MC)SCF, DFT, CI, and CC wave functions.
    The authors accept no responsibility for the performance of
    the code or for the correctness of the results.
     
    The code (in whole or part) is provided under a licence and
    is not to be reproduced for further distribution without
    the written permission of the authors or their representatives.
     
    See the home page "http://daltonprogram.org" for further information.
     
    If results obtained with this code are published,
    the appropriate citations would be both of:
     
       K. Aidas, C. Angeli, K. L. Bak, V. Bakken, R. Bast,
       L. Boman, O. Christiansen, R. Cimiraglia, S. Coriani,
       J. Cukras, P. Dahle, E. K. Dalskov, U. Ekstroem,
       T. Enevoldsen, J. J. Eriksen, P. Ettenhuber, B. Fernandez,
       L. Ferrighi, H. Fliegl, L. Frediani, K. Hald, A. Halkier,
       C. Haettig, H. Heiberg, T. Helgaker, A. C. Hennum,
       H. Hettema, E. Hjertenaes, S. Hoest, I.-M. Hoeyvik,
       M. F. Iozzi, B. Jansik, H. J. Aa. Jensen, D. Jonsson,
       P. Joergensen, M. Kaminski, J. Kauczor, S. Kirpekar,
       T. Kjaergaard, W. Klopper, S. Knecht, R. Kobayashi, H. Koch,
       J. Kongsted, A. Krapp, K. Kristensen, A. Ligabue,
       O. B. Lutnaes, J. I. Melo, K. V. Mikkelsen, R. H. Myhre,
       C. Neiss, C. B. Nielsen, P. Norman, J. Olsen,
       J. M. H. Olsen, A. Osted, M. J. Packer, F. Pawlowski,
       T. B. Pedersen, P. F. Provasi, S. Reine, Z. Rinkevicius,
       T. A. Ruden, K. Ruud, V. Rybkin, P. Salek, C. C. M. Samson,
       A. Sanchez de Meras, T. Saue, S. P. A. Sauer,
       B. Schimmelpfennig, K. Sneskov, A. H. Steindal,
       K. O. Sylvester-Hvid, P. R. Taylor, A. M. Teale,
       E. I. Tellgren, D. P. Tew, A. J. Thorvaldsen, L. Thoegersen,
       O. Vahtras, M. A. Watson, D. J. D. Wilson, M. Ziolkowski
       and H. Agren,
       "The Dalton quantum chemistry program system",
       WIREs Comput. Mol. Sci. 2013. (doi: 10.1002/wcms.1172)
    
    and
    
       Dalton, a Molecular Electronic Structure Program,
       Release DALTON2014.0 (2015), see http://daltonprogram.org
   ----------------------------------------------------------------------------

    Authors in alphabetical order (major contribution(s) in parenthesis):

  Kestutis Aidas,           Vilnius University,           Lithuania   (QM/MM)
  Celestino Angeli,         University of Ferrara,        Italy       (NEVPT2)
  Keld L. Bak,              UNI-C,                        Denmark     (AOSOPPA, non-adiabatic coupling, magnetic properties)
  Vebjoern Bakken,          University of Oslo,           Norway      (DALTON; geometry optimizer, symmetry detection)
  Radovan Bast,             KTH Stockholm,                Sweden      (DALTON installation and execution frameworks)
  Pablo Baudin,             University of Valencia,       Spain       (Cholesky excitation energies)
  Linus Boman,              NTNU,                         Norway      (Cholesky decomposition and subsystems)
  Ove Christiansen,         Aarhus University,            Denmark     (CC module)
  Renzo Cimiraglia,         University of Ferrara,        Italy       (NEVPT2)
  Sonia Coriani,            University of Trieste,        Italy       (CC module, MCD in RESPONS)
  Janusz Cukras,            University of Trieste,        Italy       (MChD in RESPONS)
  Paal Dahle,               University of Oslo,           Norway      (Parallelization)
  Erik K. Dalskov,          UNI-C,                        Denmark     (SOPPA)
  Thomas Enevoldsen,        Univ. of Southern Denmark,    Denmark     (SOPPA)
  Janus J. Eriksen,         Aarhus University,            Denmark     (Polarizable embedding model, TDA)
  Berta Fernandez,          U. of Santiago de Compostela, Spain       (doublet spin, ESR in RESPONS)
  Lara Ferrighi,            Aarhus University,            Denmark     (PCM Cubic response)
  Heike Fliegl,             University of Oslo,           Norway      (CCSD(R12))
  Luca Frediani,            UiT The Arctic U. of Norway,  Norway      (PCM)
  Bin Gao,                  UiT The Arctic U. of Norway,  Norway      (Gen1Int library)
  Christof Haettig,         Ruhr-University Bochum,       Germany     (CC module)
  Kasper Hald,              Aarhus University,            Denmark     (CC module)
  Asger Halkier,            Aarhus University,            Denmark     (CC module)
  Erik D. Hedegaard,        Univ. of Southern Denmark,    Denmark     (Polarizable embedding model, QM/MM)
  Hanne Heiberg,            University of Oslo,           Norway      (geometry analysis, selected one-electron integrals)
  Trygve Helgaker,          University of Oslo,           Norway      (DALTON; ABACUS, ERI, DFT modules, London, and much more)
  Alf Christian Hennum,     University of Oslo,           Norway      (Parity violation)
  Hinne Hettema,            University of Auckland,       New Zealand (quadratic response in RESPONS; SIRIUS supersymmetry)
  Eirik Hjertenaes,         NTNU,                         Norway      (Cholesky decomposition)
  Maria Francesca Iozzi,    University of Oslo,           Norway      (RPA)
  Brano Jansik              Technical Univ. of Ostrava    Czech Rep.  (DFT cubic response)
  Hans Joergen Aa. Jensen,  Univ. of Southern Denmark,    Denmark     (DALTON; SIRIUS, RESPONS, ABACUS modules, London, and much more)
  Dan Jonsson,              UiT The Arctic U. of Norway,  Norway      (cubic response in RESPONS module)
  Poul Joergensen,          Aarhus University,            Denmark     (RESPONS, ABACUS, and CC modules)
  Maciej Kaminski,          University of Warsaw,         Poland      (CPPh in RESPONS)
  Joanna Kauczor,           Linkoeping University,        Sweden      (Complex polarization propagator (CPP) module)
  Sheela Kirpekar,          Univ. of Southern Denmark,    Denmark     (Mass-velocity & Darwin integrals)
  Wim Klopper,              KIT Karlsruhe,                Germany     (R12 code in CC, SIRIUS, and ABACUS modules)
  Stefan Knecht,            ETH Zurich,                   Switzerland (Parallel CI and MCSCF)
  Rika Kobayashi,           Australian National Univ.,    Australia   (DIIS in CC, London in MCSCF)
  Henrik Koch,              NTNU,                         Norway      (CC module, Cholesky decomposition)
  Jacob Kongsted,           Univ. of Southern Denmark,    Denmark     (Polarizable embedding model, QM/MM)
  Andrea Ligabue,           University of Modena,         Italy       (CTOCD, AOSOPPA)
  Nanna H. List             Univ. of Southern Denmark,    Denmark     (Polarizable embedding model)
  Ola B. Lutnaes,           University of Oslo,           Norway      (DFT Hessian)
  Juan I. Melo,             University of Buenos Aires,   Argentina   (LRESC, Relativistic Effects on NMR Shieldings)
  Kurt V. Mikkelsen,        University of Copenhagen,     Denmark     (MC-SCRF and QM/MM)
  Rolf H. Myhre,            NTNU,                         Norway      (Cholesky, subsystems and ECC2)
  Christian Neiss,          Univ. Erlangen-Nuernberg,     Germany     (CCSD(R12))
  Christian B. Nielsen,     University of Copenhagen,     Denmark     (QM/MM)
  Patrick Norman,           Linkoeping University,        Sweden      (Cubic response and complex response in RESPONS)
  Jeppe Olsen,              Aarhus University,            Denmark     (SIRIUS CI/density modules)
  Jogvan Magnus H. Olsen,   Univ. of Southern Denmark,    Denmark     (Polarizable embedding model, QM/MM)
  Anders Osted,             Copenhagen University,        Denmark     (QM/MM)
  Martin J. Packer,         University of Sheffield,      UK          (SOPPA)
  Filip Pawlowski,          Kazimierz Wielki University,  Poland      (CC3)
  Morten N. Pedersen,       Univ. of Southern Denmark,    Denmark     (Polarizable embedding model)
  Thomas B. Pedersen,       University of Oslo,           Norway      (Cholesky decomposition)
  Patricio F. Provasi,      University of Northeastern,   Argentina   (Analysis of coupling constants in localized orbitals)
  Zilvinas Rinkevicius,     KTH Stockholm,                Sweden      (open-shell DFT, ESR)
  Elias Rudberg,            KTH Stockholm,                Sweden      (DFT grid and basis info)
  Torgeir A. Ruden,         University of Oslo,           Norway      (Numerical derivatives in ABACUS)
  Kenneth Ruud,             UiT The Arctic U. of Norway,  Norway      (DALTON; ABACUS magnetic properties and much more)
  Pawel Salek,              KTH Stockholm,                Sweden      (DALTON; DFT code)
  Claire C. M. Samson       University of Karlsruhe       Germany     (Boys localization, r12 integrals in ERI)
  Alfredo Sanchez de Meras, University of Valencia,       Spain       (CC module, Cholesky decomposition)
  Trond Saue,               Paul Sabatier University,     France      (direct Fock matrix construction)
  Stephan P. A. Sauer,      University of Copenhagen,     Denmark     (SOPPA(CCSD), SOPPA prop., AOSOPPA, vibrational g-factors)
  Bernd Schimmelpfennig,    Forschungszentrum Karlsruhe,  Germany     (AMFI module)
  Kristian Sneskov,         Aarhus University,            Denmark     (Polarizable embedding model, QM/MM)
  Arnfinn H. Steindal,      UiT The Arctic U. of Norway,  Norway      (parallel QM/MM, Polarizable embedding model)
  Casper Steinmann,         Univ. of Southern Denmark,    Denmark     (QFIT, Polarizable embedding model)
  K. O. Sylvester-Hvid,     University of Copenhagen,     Denmark     (MC-SCRF)
  Peter R. Taylor,          VLSCI/Univ. of Melbourne,     Australia   (Symmetry handling ABACUS, integral transformation)
  Andrew M. Teale,          University of Nottingham,     England     (DFT-AC, DFT-D)
  David P. Tew,             University of Bristol,        England     (CCSD(R12))
  Olav Vahtras,             KTH Stockholm,                Sweden      (triplet response, spin-orbit, ESR, TDDFT, open-shell DFT)
  David J. Wilson,          La Trobe University,          Australia   (DFT Hessian and DFT magnetizabilities)
  Hans Agren,               KTH Stockholm,                Sweden      (SIRIUS module, RESPONS, MC-SCRF solvation model)
 --------------------------------------------------------------------------------

     Date and time (Linux)  : Sun Apr  5 17:36:48 2015
     Host name              : copper                                  

 * Work memory size             :    64000000 =  488.28 megabytes.

 * Directories for basis set searches:
   1) /home/eric/development/cclib_berquist/data/DALTON/basicDALTON-2015
   2) /home/eric/opt/apps/dalton/2015-i2013.sp1.1-mkl-omp/dalton/basis


Compilation information
-----------------------

 Who compiled             | eric
 Host                     | copper
 System                   | Linux-3.13.0-46-generic
 CMake generator          | Unix Makefiles
 Processor                | x86_64
 64-bit integers          | OFF
 MPI                      | OFF
 Fortran compiler         | /home/eric/opt/apps/intel/2013_sp1_update1/compose
                          | r_xe_2013_sp1.1.106/bin/intel64/ifort
 Fortran compiler version | ifort (IFORT) 14.0.1 20131008
 C compiler               | /home/eric/opt/apps/intel/2013_sp1_update1/compose
                          | r_xe_2013_sp1.1.106/bin/intel64/icc
 C compiler version       | icc (ICC) 14.0.1 20131008
 C++ compiler             | /home/eric/opt/apps/intel/2013_sp1_update1/compose
                          | r_xe_2013_sp1.1.106/bin/intel64/icpc
 C++ compiler version     | icpc (ICC) 14.0.1 20131008
 Static linking           | OFF
 Last Git revision        | d34efb170c481236ad60c789dea90a4c857c6bab
 Configuration time       | 2015-03-16 13:50:41.378554

 * OpenMP run using 4 threads.


   Content of the .dal input file
 ----------------------------------

BASIS                                             
aug-cc-pCVQZ                                      
Carbon atom                                       
                                                  
AtomTypes=1 Angstrom                              
Charge=6.0 Atoms=1                                
C   0.0 0.0 0.0                                   
                                                  
**DALTON                                          
.RUN WAVE FUNCTIONS                               
**WAVE FUNCTIONS                                  
.HF                                               
**END OF                                          


       *******************************************************************
       *********** Output from DALTON general input processing ***********
       *******************************************************************

 --------------------------------------------------------------------------------
   Overall default print level:    0
   Print level for DALTON.STAT:    1

    HERMIT 1- and 2-electron integral sections will be executed
    "Old" integral transformation used (limited to max 255 basis functions)
    Wave function sections will be executed (SIRIUS module)
 --------------------------------------------------------------------------------


   ****************************************************************************
   *************** Output of molecule and basis set information ***************
   ****************************************************************************


    The two title cards from your ".mol" input:
    ------------------------------------------------------------------------
 1: Carbon atom                                                             
 2:                                                                         
    ------------------------------------------------------------------------

  Coordinates are entered in Angstrom and converted to atomic units.
          - Conversion factor : 1 bohr = 0.52917721 A

  Atomic type no.    1
  --------------------
  Nuclear charge:   6.00000
  Number of symmetry independent centers:    1
  Number of basis sets to read;    2
  Basis set file used for this atomic type with Z =   6 :
     "/home/eric/opt/apps/dalton/2015-i2013.sp1.1-mkl-omp/dalton/basis/aug-cc-pCVQZ"


                      SYMADD: Requested addition of symmetry
                      --------------------------------------

 Symmetry test threshold:  5.00E-06

@   The molecule is centered at center of mass and rotated
@   so principal axes of inertia are along coordinate axes.

 Symmetry class found: D(oo,h)        

 Symmetry Independent Centres             
 ----------------------------
       6 :      0.00000000     0.00000000     0.00000000  Isotope  1

 The following elements were found:   X  Y  Z  


                         SYMGRP: Point group information
                         -------------------------------

@    Full point group is: D(oo,h)        
@    Represented as:      D2h

@  * The irrep name for each symmetry:    1: Ag     2: B3u    3: B2u    4: B1g    5: B1u    6: B2g    7: B3g    8: Au 


   * The point group was generated by:

      Reflection in the yz-plane
      Reflection in the xz-plane
      Reflection in the xy-plane

   * Group multiplication table

        |  E   C2z  C2y  C2x   i   Oxy  Oxz  Oyz
   -----+----------------------------------------
     E  |  E   C2z  C2y  C2x   i   Oxy  Oxz  Oyz
    C2z | C2z   E   C2x  C2y  Oxy   i   Oyz  Oxz
    C2y | C2y  C2x   E   C2z  Oxz  Oyz   i   Oxy
    C2x | C2x  C2y  C2z   E   Oyz  Oxz  Oxy   i 
     i  |  i   Oxy  Oxz  Oyz   E   C2z  C2y  C2x
    Oxy | Oxy   i   Oyz  Oxz  C2z   E   C2x  C2y
    Oxz | Oxz  Oyz   i   Oxy  C2y  C2x   E   C2z
    Oyz | Oyz  Oxz  Oxy   i   C2x  C2y  C2z   E 

   * Character table

        |  E   C2z  C2y  C2x   i   Oxy  Oxz  Oyz
   -----+----------------------------------------
    Ag  |   1    1    1    1    1    1    1    1
    B3u |   1   -1   -1    1   -1    1    1   -1
    B2u |   1   -1    1   -1   -1    1   -1    1
    B1g |   1    1   -1   -1    1    1   -1   -1
    B1u |   1    1   -1   -1   -1   -1    1    1
    B2g |   1   -1    1   -1    1   -1    1   -1
    B3g |   1   -1   -1    1    1   -1   -1    1
    Au  |   1    1    1    1   -1   -1   -1   -1

   * Direct product table

        | Ag   B3u  B2u  B1g  B1u  B2g  B3g  Au 
   -----+----------------------------------------
    Ag  | Ag   B3u  B2u  B1g  B1u  B2g  B3g  Au 
    B3u | B3u  Ag   B1g  B2u  B2g  B1u  Au   B3g
    B2u | B2u  B1g  Ag   B3u  B3g  Au   B1u  B2g
    B1g | B1g  B2u  B3u  Ag   Au   B3g  B2g  B1u
    B1u | B1u  B2g  B3g  Au   Ag   B3u  B2u  B1g
    B2g | B2g  B1u  Au   B3g  B3u  Ag   B1g  B2u
    B3g | B3g  Au   B1u  B2g  B2u  B1g  Ag   B3u
    Au  | Au   B3g  B2g  B1u  B1g  B2u  B3u  Ag 


                                 Isotopic Masses
                                 ---------------

                           C          12.000000

                       Total mass:    12.000000 amu
                       Natural abundance:  98.900 %

 Center-of-mass coordinates (a.u.):    0.000000    0.000000    0.000000


  Atoms and basis sets
  --------------------

  Number of atom types :    1
  Total number of atoms:    1

  Basis set used is "aug-cc-pCVQZ" from the basis set library.

  label    atoms   charge   prim   cont     basis
  ----------------------------------------------------------------------
  C           1    6.0000   122   109      [16s10p6d4f2g|9s8p6d4f2g]                          
  ----------------------------------------------------------------------
  total:      1    6.0000   122   109
  ----------------------------------------------------------------------
  Spherical harmonic basis used.

  Threshold for neglecting AO integrals:  1.00D-12


  Cartesian Coordinates (a.u.)
  ----------------------------

  Total number of coordinates:    3
  C       :     1  x   0.0000000000    2  y   0.0000000000    3  z   0.0000000000


  Symmetry Coordinates
  --------------------

  Number of coordinates in each symmetry:     0    1    1    0    1    0    0    0

  Symmetry  B3u ( 2)

    1   C     x    1

  Symmetry  B2u ( 3)

    2   C     y    2

  Symmetry  B1u ( 5)

    3   C     z    3


@ This is an atomic calculation.


  Symmetry Orbitals
  -----------------

  Number of orbitals in each symmetry:          27   16   16   10   16   10   10    4


  Symmetry  Ag ( 1)

    1     C        1s         1
    2     C        1s         2
    3     C        1s         3
    4     C        1s         4
    5     C        1s         5
    6     C        1s         6
    7     C        1s         7
    8     C        1s         8
    9     C        1s         9
   10     C        3d0       36
   11     C        3d2+      38
   12     C        3d0       41
   13     C        3d2+      43
   14     C        3d0       46
   15     C        3d2+      48
   16     C        3d0       51
   17     C        3d2+      53
   18     C        3d0       56
   19     C        3d2+      58
   20     C        3d0       61
   21     C        3d2+      63
   22     C        5g0       96
   23     C        5g2+      98
   24     C        5g4+     100
   25     C        5g0      105
   26     C        5g2+     107
   27     C        5g4+     109


  Symmetry  B3u( 2)

   28     C        2px       10
   29     C        2px       13
   30     C        2px       16
   31     C        2px       19
   32     C        2px       22
   33     C        2px       25
   34     C        2px       28
   35     C        2px       31
   36     C        4f1+      68
   37     C        4f3+      70
   38     C        4f1+      75
   39     C        4f3+      77
   40     C        4f1+      82
   41     C        4f3+      84
   42     C        4f1+      89
   43     C        4f3+      91


  Symmetry  B2u( 3)

   44     C        2py       11
   45     C        2py       14
   46     C        2py       17
   47     C        2py       20
   48     C        2py       23
   49     C        2py       26
   50     C        2py       29
   51     C        2py       32
   52     C        4f3-      64
   53     C        4f1-      66
   54     C        4f3-      71
   55     C        4f1-      73
   56     C        4f3-      78
   57     C        4f1-      80
   58     C        4f3-      85
   59     C        4f1-      87


  Symmetry  B1g( 4)

   60     C        3d2-      34
   61     C        3d2-      39
   62     C        3d2-      44
   63     C        3d2-      49
   64     C        3d2-      54
   65     C        3d2-      59
   66     C        5g4-      92
   67     C        5g2-      94
   68     C        5g4-     101
   69     C        5g2-     103


  Symmetry  B1u( 5)

   70     C        2pz       12
   71     C        2pz       15
   72     C        2pz       18
   73     C        2pz       21
   74     C        2pz       24
   75     C        2pz       27
   76     C        2pz       30
   77     C        2pz       33
   78     C        4f0       67
   79     C        4f2+      69
   80     C        4f0       74
   81     C        4f2+      76
   82     C        4f0       81
   83     C        4f2+      83
   84     C        4f0       88
   85     C        4f2+      90


  Symmetry  B2g( 6)

   86     C        3d1+      37
   87     C        3d1+      42
   88     C        3d1+      47
   89     C        3d1+      52
   90     C        3d1+      57
   91     C        3d1+      62
   92     C        5g1+      97
   93     C        5g3+      99
   94     C        5g1+     106
   95     C        5g3+     108


  Symmetry  B3g( 7)

   96     C        3d1-      35
   97     C        3d1-      40
   98     C        3d1-      45
   99     C        3d1-      50
  100     C        3d1-      55
  101     C        3d1-      60
  102     C        5g3-      93
  103     C        5g1-      95
  104     C        5g3-     102
  105     C        5g1-     104


  Symmetry  Au ( 8)

  106     C        4f2-      65
  107     C        4f2-      72
  108     C        4f2-      79
  109     C        4f2-      86

  Symmetries of electric field:  B3u(2)  B2u(3)  B1u(5)

  Symmetries of magnetic field:  B3g(7)  B2g(6)  B1g(4)


                     .---------------------------------------.
                     | Starting in Integral Section (HERMIT) |
                     `---------------------------------------'



 ***************************************************************************************
 ****************** Output from **INTEGRALS input processing (HERMIT) ******************
 ***************************************************************************************


 - Using defaults, no **INTEGRALS input found

 Default print level:        1

 * Nuclear model: Point charge

 Calculation of one- and two-electron Hamiltonian integrals.

 Center of mass  (bohr):      0.000000000000      0.000000000000      0.000000000000
 Operator center (bohr):      0.000000000000      0.000000000000      0.000000000000
 Gauge origin    (bohr):      0.000000000000      0.000000000000      0.000000000000
 Dipole origin   (bohr):      0.000000000000      0.000000000000      0.000000000000


     ************************************************************************
     ************************** Output from HERINT **************************
     ************************************************************************


 Threshold for neglecting two-electron integrals:  1.00D-12
 HERMIT - Number of two-electron integrals written:     1729576 (  9.6% )
 HERMIT - Megabytes written:                             19.807

 >>>  Time used in TWOINT     is   1.46 seconds
 >>>> Total CPU  time used in HERMIT:   1.65 seconds
 >>>> Total wall time used in HERMIT:   0.65 seconds


                        .----------------------------------.
                        | End of Integral Section (HERMIT) |
                        `----------------------------------'



                   .--------------------------------------------.
                   | Starting in Wave Function Section (SIRIUS) |
                   `--------------------------------------------'


 *** Output from Huckel module :

     Using EWMO model:          T
     Using EHT  model:          F
     Number of Huckel orbitals each symmetry:    2    1    1    0    1    0    0    0

 EWMO - Energy Weighted Maximum Overlap - is a Huckel type method,
        which normally is better than Extended Huckel Theory.
 Reference: Linderberg and Ohrn, Propagators in Quantum Chemistry (Wiley, 1973)

 Huckel EWMO eigenvalues for symmetry :  1
          -11.338400      -0.712100

 Huckel EWMO eigenvalues for symmetry :  2
           -0.406900

 Huckel EWMO eigenvalues for symmetry :  3
           -0.406900

 Huckel EWMO eigenvalues for symmetry :  5
           -0.406900

 **********************************************************************
 *SIRIUS* a direct, restricted step, second order MCSCF program       *
 **********************************************************************

 
     Date and time (Linux)  : Sun Apr  5 17:36:50 2015
     Host name              : copper                                  

 Title lines from ".mol" input file:
     Carbon atom                                                             
                                                                             

 Print level on unit LUPRI =   2 is   0
 Print level on unit LUW4  =   2 is   5

@    Restricted, closed shell Hartree-Fock calculation.

 Initial molecular orbitals are obtained according to
 ".MOSTART EWMO  " input option

     Wave function specification
     ============================
@    Wave function type        >>> HF <<<
@    Number of closed shell electrons           6
@    Number of electrons in active shells       0
@    Total charge of the molecule               0

@    Spin multiplicity and 2 M_S                1         0
@    Total number of symmetries                 8 (point group: D2h)
@    Reference state symmetry                   1 (irrep name : Ag )

     Orbital specifications
     ======================
@    Abelian symmetry species          All |    1    2    3    4    5    6    7    8
@                                          |  Ag   B3u  B2u  B1g  B1u  B2g  B3g  Au 
                                       --- |  ---  ---  ---  ---  ---  ---  ---  ---
@    Total number of orbitals          109 |   27   16   16   10   16   10   10    4
@    Number of basis functions         109 |   27   16   16   10   16   10   10    4

      ** Automatic occupation of RHF orbitals **

      -- Initial occupation of symmetries is determined from extended Huckel guess.           
      -- Initial occupation of symmetries is :
@    Occupied SCF orbitals               3 |    2    1    0    0    0    0    0    0

     Maximum number of Fock   iterations      0
     Maximum number of DIIS   iterations     60
     Maximum number of QC-SCF iterations     60
     Threshold for SCF convergence     1.00D-05


 ***********************************************
 ***** DIIS acceleration of SCF iterations *****
 ***********************************************

 C1-DIIS algorithm; max error vectors =    8

 Automatic occupation of symmetries with   6 electrons.

 Iter     Total energy    Error norm  Delta(E)    SCF occupation
 -----------------------------------------------------------------------------
     (Precalculated two-electron integrals are transformed to P-supermatrix elements.
      Threshold for discarding integrals :  1.00D-12 )
 >>>  Time used in FORMSUP    is   0.18 seconds
@  1  -37.6007868548       1.02D+00  -3.76D+01     2   1   0   0   0   0   0   0
      Virial theorem: -V/T =      1.997894
@      MULPOP C       0.00; 
 -----------------------------------------------------------------------------
@  2  -37.6044497776       3.32D-02  -3.66D-03     2   1   0   0   0   0   0   0
      Virial theorem: -V/T =      2.000332
@      MULPOP C       0.00; 
 -----------------------------------------------------------------------------
@  3  -37.6045694874       7.05D-03  -1.20D-04     2   1   0   0   0   0   0   0
      Virial theorem: -V/T =      2.000021
@      MULPOP C      -0.00; 
 -----------------------------------------------------------------------------
@  4  -37.6045781032       8.08D-04  -8.62D-06     2   1   0   0   0   0   0   0
      Virial theorem: -V/T =      2.000033
@      MULPOP C       0.00; 
 -----------------------------------------------------------------------------
@  5  -37.6045782708       1.21D-04  -1.68D-07     2   1   0   0   0   0   0   0
      Virial theorem: -V/T =      2.000023
@      MULPOP C      -0.00; 
 -----------------------------------------------------------------------------
@  6  -37.6045782750       2.62D-05  -4.17D-09     2   1   0   0   0   0   0   0
      Virial theorem: -V/T =      2.000024
@      MULPOP C      -0.00; 
 -----------------------------------------------------------------------------
@  7  -37.6045782752       5.12D-06  -1.77D-10     2   1   0   0   0   0   0   0

@ *** DIIS converged in   7 iterations !
@     Converged SCF energy, gradient:    -37.604578275160    5.12D-06
    - total time used in SIRFCK :              0.00 seconds


 *** SCF orbital energy analysis ***

 Only the 20 lowest virtual orbital energies printed in each symmetry.

 Number of electrons :    6
 Orbital occupations :    2    1    0    0    0    0    0    0

 Sym       Hartree-Fock orbital energies

1 Ag    -11.36492852    -0.72561710     0.08315943     0.23234270     0.24537148
          0.49871003     0.77556973     0.79827644     2.02589370     2.08999211
          2.13863252     2.15489433     2.19062911     2.23743090     5.87390423
          5.95484542     5.98172784     6.31986471     6.39361127     8.95227539
         26.37504088    26.43532512

2 B3u    -0.35844933     0.08983621     0.44383193     0.76226624     0.77741476
          1.59111820     2.28314492     2.31460012     5.22484010     6.47302725
          6.51743597    18.72024658    66.34333783    98.67875290    98.69712743
        224.83922290

3 B2u     0.01886961     0.10815116     0.46256449     0.74414601     0.77356131
          1.57379247     2.24517154     2.30662245     5.16713856     6.41813231
          6.50628176    18.65904585    66.30290537    98.65573012    98.69253745
        224.82020303

4 B1g     0.24160478     0.79105015     2.11833872     2.15082650     2.22467671
          5.92117462     5.97501173     6.37499676    26.42040348   115.12632588

5 B1u     0.01886961     0.10815116     0.46256449     0.74414601     0.77356131
          1.57379247     2.24517154     2.30662245     5.16713856     6.41813231
          6.50628176    18.65904585    66.30290537    98.65573012    98.69253745
        224.82020303

6 B2g     0.24160478     0.79105015     2.11833872     2.15082650     2.22467671
          5.92117462     5.97501173     6.37499676    26.42040348   115.12632588

7 B3g     0.23234270     0.77556973     2.08999211     2.13863252     2.19062911
          5.87390423     5.95484542     6.31986471    26.37504088   115.10387799

8 Au      0.76226624     2.28314492     6.47302725    98.67875290

    E(LUMO) :     0.01886961 au (symmetry 5)
  - E(HOMO) :    -0.35844933 au (symmetry 2)
  ------------------------------------------
    gap     :     0.37731894 au

 >>> Writing SIRIFC interface file

 >>>> CPU and wall time for SCF :       0.242       0.061


                       .-----------------------------------.
                       | >>> Final results from SIRIUS <<< |
                       `-----------------------------------'


@    Spin multiplicity:           1
@    Spatial symmetry:            1 ( irrep  Ag  in D2h )
@    Total charge of molecule:    0

@    Final HF energy:             -37.604578275160                 
@    Nuclear repulsion:             0.000000000000
@    Electronic energy:           -37.604578275160

@    Final gradient norm:           0.000005115497

 
     Date and time (Linux)  : Sun Apr  5 17:36:50 2015
     Host name              : copper                                  

File label for MO orbitals:   5Apr15   FOCKDIIS

 (Only coefficients >0.0100 are printed.)

 Molecular orbitals for symmetry species 1  (Ag )
 ------------------------------------------------

    Orbital         1        2        3        4        5        6        7
   1 C   :1s     1.0006   0.0006  -0.0738  -0.0000  -0.0139   0.2853   0.0000
   2 C   :1s     0.0030   1.0113  -0.5878  -0.0000  -0.0755   0.7771   0.0000
   3 C   :1s    -0.0007   0.0041  -0.0393   0.0000  -0.0075   0.1780   0.0000
   4 C   :1s    -0.0024  -0.0013   0.6015   0.0000   0.1251  -3.2240  -0.0000
   5 C   :1s    -0.0001  -0.0171  -1.2142   0.0000  -0.1511   3.5658   0.0000
   6 C   :1s     0.0004   0.0003  -0.0290  -0.0000  -0.0057   0.1225   0.0000
   9 C   :1s    -0.0004   0.0029   1.8221  -0.0000   0.1400  -1.5600  -0.0000
  14 C   :3d0   -0.0000  -0.0010  -0.0003  -0.0088   0.0051   0.0017  -0.0513
  15 C   :3d2+   0.0001   0.0017   0.0005  -0.0051  -0.0088  -0.0029  -0.0296
  16 C   :3d0   -0.0004   0.0002   0.0000   0.0592  -0.0368  -0.0129   0.1218
  17 C   :3d2+   0.0007  -0.0003  -0.0001   0.0342   0.0637   0.0224   0.0703
  18 C   :3d0   -0.0000  -0.0042  -0.0053  -0.1690   0.0990   0.0404  -1.1679
  19 C   :3d2+   0.0000   0.0073   0.0092  -0.0975  -0.1715  -0.0700  -0.6743
  20 C   :3d0   -0.0000  -0.0022   0.0310   0.9521  -0.5491  -0.0310   0.5912
  21 C   :3d2+   0.0000   0.0038  -0.0537   0.5497   0.9511   0.0536   0.3413
  27 C   :5g4+  -0.0000  -0.0003   0.0002  -0.0027  -0.0047   0.0007   0.0110

    Orbital         8        9       10       11       12
   1 C   :1s     0.0365  -1.4648  -0.0000   0.0000  -0.0020
   2 C   :1s     0.1572  -8.2770  -0.0000   0.0000  -0.0116
   3 C   :1s     0.0206  -1.3753   0.0000   0.0000  -0.0022
   4 C   :1s    -0.2867   9.5704   0.0000  -0.0000   0.0134
   5 C   :1s     0.1673  -0.3846   0.0000   0.0000   0.0001
   6 C   :1s     0.0150  -0.5404  -0.0000   0.0000  -0.0007
   8 C   :1s     0.0008  -0.0281  -0.0000   0.0000  -0.0000
   9 C   :1s    -0.0868   0.8060   0.0000  -0.0000   0.0009
  14 C   :3d0   -0.0310  -0.0091   0.0000   0.0028  -0.0026
  15 C   :3d2+   0.0537   0.0157  -0.0000   0.0016   0.0045
  16 C   :3d0    0.0667   0.0302  -0.0000  -0.0064   0.0068
  17 C   :3d2+  -0.1155  -0.0523   0.0000  -0.0037  -0.0118
  18 C   :3d0   -0.6703  -0.0288   0.0000   0.0212  -0.0199
  19 C   :3d2+   1.1609   0.0500  -0.0000   0.0122   0.0345
  20 C   :3d0    0.3396   0.0117  -0.0000  -0.0070   0.0065
  21 C   :3d2+  -0.5881  -0.0203   0.0000  -0.0040  -0.0113
  22 C   :5g0    0.0004   0.0004  -0.1453   0.1111  -0.0748
  23 C   :5g2+  -0.0006  -0.0006  -0.1299  -0.0994   0.1115
  24 C   :5g4+   0.0008   0.0007  -0.0246  -0.1315  -0.1475
  25 C   :5g0   -0.0097  -0.0009   0.8182  -0.6190   0.4153
  26 C   :5g2+   0.0144   0.0014   0.7318   0.5537  -0.6191
  27 C   :5g4+  -0.0191  -0.0019   0.1383   0.7324   0.8190

 Molecular orbitals for symmetry species 2  (B3u)
 ------------------------------------------------

    Orbital         1        2        3        4        5        6        7
   1 C   :2px    0.9811   0.1605  -0.9839   0.0000  -0.0410   0.4610  -0.0000
   2 C   :2px   -0.0102   0.0557   0.2823  -0.0000   0.0266   1.2616   0.0000
   3 C   :2px   -0.0133  -0.1001  -0.5774   0.0000  -0.0363  -2.3646  -0.0000
   4 C   :2px    0.0436   0.4933   2.1347  -0.0000   0.1036   1.0974   0.0000
   5 C   :2px    0.0002   0.0040   0.0190  -0.0000   0.0019   0.0697   0.0000
   8 C   :2px    0.0238  -1.2694  -0.7827   0.0000  -0.0314  -0.3647  -0.0000
  11 C   :4f1+   0.0025   0.0004  -0.0010   0.0330  -0.0260   0.0084  -0.0890
  12 C   :4f3+  -0.0033  -0.0005   0.0012   0.0255   0.0335  -0.0108  -0.0689
  13 C   :4f1+   0.0057   0.0026  -0.0095  -0.1738   0.1363  -0.0321   1.0475
  14 C   :4f3+  -0.0074  -0.0034   0.0122  -0.1346  -0.1759   0.0415   0.8114
  15 C   :4f1+   0.0048  -0.0039   0.0321   0.8829  -0.6840   0.0191  -0.5074
  16 C   :4f3+  -0.0061   0.0051  -0.0414   0.6839   0.8830  -0.0246  -0.3930

    Orbital         8        9       10       11
   1 C   :2px    0.0388  11.0411   0.0000  -0.2206
   2 C   :2px   -0.0636  -5.8735  -0.0000   0.1314
   3 C   :2px    0.0706  -3.7870  -0.0000   0.0633
   4 C   :2px   -0.0595  -3.3453  -0.0000   0.0719
   5 C   :2px   -0.0044  -0.3848  -0.0000   0.0095
   7 C   :2px   -0.0002  -0.0153  -0.0000   0.0004
   8 C   :2px    0.0142   0.1722   0.0000  -0.0048
  11 C   :4f1+   0.0691  -0.0156   0.9755  -0.7553
  12 C   :4f3+  -0.0891   0.0202   0.7556   0.9752
  13 C   :4f1+  -0.8106   0.0122  -0.6141   0.4751
  14 C   :4f3+   1.0465  -0.0157  -0.4757  -0.6133
  15 C   :4f1+   0.3912  -0.0054   0.2275  -0.1757
  16 C   :4f3+  -0.5050   0.0070   0.1762   0.2268

 Molecular orbitals for symmetry species 3  (B2u)
 ------------------------------------------------

    Orbital         1        2        3        4        5        6        7
   1 C   :2py    0.5692   0.4273  -1.0791   0.0000  -0.0346   0.4572   0.0000
   2 C   :2py   -0.0114   0.0638   0.2828  -0.0000   0.0220   1.2930  -0.0000
   3 C   :2py    0.0360  -0.0924  -0.6578   0.0000  -0.0313  -2.3261   0.0000
   4 C   :2py    0.0954   0.7052   2.0808  -0.0000   0.0846   1.0752  -0.0000
   5 C   :2py   -0.0000   0.0050   0.0187  -0.0000   0.0015   0.0701  -0.0000
   8 C   :2py    0.5281  -1.1896  -0.7315   0.0000  -0.0256  -0.3590   0.0000
  11 C   :4f3-  -0.0020  -0.0015   0.0015   0.0102   0.0409  -0.0110  -0.0280
  12 C   :4f1-   0.0005   0.0004  -0.0004   0.0395  -0.0106   0.0028  -0.1085
  13 C   :4f3-  -0.0038  -0.0055   0.0143  -0.0540  -0.2148   0.0400   0.3313
  14 C   :4f1-   0.0010   0.0014  -0.0037  -0.2091   0.0555  -0.0103   1.2831
  15 C   :4f3-  -0.0114  -0.0020  -0.0406   0.2787   1.0815  -0.0240  -0.1611
  16 C   :4f1-   0.0030   0.0005   0.0105   1.0795  -0.2792   0.0062  -0.6241

    Orbital         8        9       10
   1 C   :2py    0.0321  11.0798  -0.0000
   2 C   :2py   -0.0515  -5.8765   0.0000
   3 C   :2py    0.0553  -3.8110   0.0000
   4 C   :2py   -0.0477  -3.3540   0.0000
   5 C   :2py   -0.0035  -0.3885   0.0000
   7 C   :2py   -0.0002  -0.0154   0.0000
   8 C   :2py    0.0113   0.1722  -0.0000
  11 C   :4f3-  -0.1092   0.0194   0.3085
  12 C   :4f1-   0.0282  -0.0050   1.1948
  13 C   :4f3-   1.2822  -0.0153  -0.1944
  14 C   :4f1-  -0.3311   0.0039  -0.7529
  15 C   :4f3-  -0.6193   0.0068   0.0722
  16 C   :4f1-   0.1599  -0.0018   0.2795

 Molecular orbitals for symmetry species 4  (B1g)
 ------------------------------------------------

    Orbital         1        2        3        4        5        6        7
   2 C   :3d2-   0.0014  -0.0023  -0.0000  -0.0003   0.0197  -0.0000  -0.0004
   3 C   :3d2-  -0.0101   0.0615   0.0000   0.0046  -0.0804   0.0000  -0.0098
   4 C   :3d2-   0.0726  -0.1353  -0.0000  -0.0117   1.4311  -0.0000  -0.0108
   5 C   :3d2-  -0.1970   1.3439   0.0000   0.0357  -1.0816   0.0000   0.0072
   6 C   :3d2-   1.0998  -0.6822  -0.0000  -0.0117   0.3610  -0.0000  -0.0019
   7 C   :5g4-   0.0009   0.0009  -0.0699  -0.1864  -0.0173  -0.4382  -1.1590
   8 C   :5g2-  -0.0003  -0.0003  -0.1850   0.0705   0.0066  -1.1594   0.4381
   9 C   :5g4-  -0.0054  -0.0220   0.3914   1.0359   0.0126   0.2091   0.5520
  10 C   :5g2-   0.0021   0.0083   1.0355  -0.3916  -0.0048   0.5533  -0.2086

    Orbital         8        9       10
   1 C   :3d2-   0.0074  -0.0719  -1.1550
   2 C   :3d2-  -0.0206   1.1535   0.5725
   3 C   :3d2-   1.4026  -0.6613  -0.2213
   4 C   :3d2-  -1.1948   0.4039   0.1339
   5 C   :3d2-   0.5591  -0.1844  -0.0624
   6 C   :3d2-  -0.1755   0.0599   0.0206

 Molecular orbitals for symmetry species 5  (B1u)
 ------------------------------------------------

    Orbital         1        2        3        4        5        6        7
   1 C   :2pz    0.5692   0.4273  -1.0791  -0.0000  -0.0346   0.4572   0.0000
   2 C   :2pz   -0.0114   0.0638   0.2828   0.0000   0.0220   1.2930  -0.0000
   3 C   :2pz    0.0360  -0.0924  -0.6578  -0.0000  -0.0313  -2.3261   0.0000
   4 C   :2pz    0.0954   0.7052   2.0808   0.0000   0.0846   1.0752  -0.0000
   5 C   :2pz   -0.0000   0.0050   0.0187   0.0000   0.0015   0.0701  -0.0000
   8 C   :2pz    0.5281  -1.1896  -0.7315  -0.0000  -0.0256  -0.3590   0.0000
  11 C   :4f0    0.0013   0.0009  -0.0010   0.0323  -0.0259   0.0069  -0.0886
  12 C   :4f2+  -0.0017  -0.0012   0.0013   0.0250   0.0334  -0.0089  -0.0686
  13 C   :4f0    0.0024   0.0035  -0.0091  -0.1707   0.1358  -0.0253   1.0476
  14 C   :4f2+  -0.0031  -0.0045   0.0117  -0.1322  -0.1754   0.0326   0.8115
  15 C   :4f0    0.0072   0.0012   0.0257   0.8814  -0.6840   0.0152  -0.5096
  16 C   :4f2+  -0.0093  -0.0016  -0.0331   0.6828   0.8831  -0.0196  -0.3947

    Orbital         8        9       10
   1 C   :2pz    0.0321  11.0798  -0.0000
   2 C   :2pz   -0.0515  -5.8765   0.0000
   3 C   :2pz    0.0553  -3.8110   0.0000
   4 C   :2pz   -0.0477  -3.3540   0.0000
   5 C   :2pz   -0.0035  -0.3885   0.0000
   7 C   :2pz   -0.0002  -0.0154   0.0000
   8 C   :2pz    0.0113   0.1722  -0.0000
  11 C   :4f0    0.0690  -0.0123   0.9755
  12 C   :4f2+  -0.0891   0.0158   0.7556
  13 C   :4f0   -0.8109   0.0096  -0.6148
  14 C   :4f2+   1.0469  -0.0125  -0.4762
  15 C   :4f0    0.3917  -0.0043   0.2282
  16 C   :4f2+  -0.5057   0.0056   0.1768

 Molecular orbitals for symmetry species 6  (B2g)
 ------------------------------------------------

    Orbital         1        2        3        4        5        6        7
   2 C   :3d1+   0.0014  -0.0023   0.0000   0.0003   0.0197  -0.0000   0.0004
   3 C   :3d1+  -0.0101   0.0615  -0.0000  -0.0046  -0.0804   0.0000   0.0098
   4 C   :3d1+   0.0726  -0.1353   0.0000   0.0117   1.4311  -0.0000   0.0108
   5 C   :3d1+  -0.1970   1.3439  -0.0000  -0.0357  -1.0816   0.0000  -0.0072
   6 C   :3d1+   1.0998  -0.6822  -0.0000   0.0117   0.3610  -0.0000   0.0019
   7 C   :5g1+  -0.0007  -0.0007  -0.1308  -0.1495   0.0139  -0.8198  -0.9293
   8 C   :5g3+   0.0006   0.0006  -0.1483   0.1318  -0.0123  -0.9296   0.8196
   9 C   :5g1+   0.0043   0.0177   0.7322   0.8306  -0.0101   0.3913   0.4425
  10 C   :5g3+  -0.0038  -0.0156   0.8303  -0.7325   0.0089   0.4437  -0.3903

    Orbital         8        9       10
   1 C   :3d1+   0.0074  -0.0719  -1.1550
   2 C   :3d1+  -0.0206   1.1535   0.5725
   3 C   :3d1+   1.4026  -0.6613  -0.2213
   4 C   :3d1+  -1.1948   0.4039   0.1339
   5 C   :3d1+   0.5591  -0.1844  -0.0624
   6 C   :3d1+  -0.1755   0.0599   0.0206

 Molecular orbitals for symmetry species 7  (B3g)
 ------------------------------------------------

    Orbital         1        2        3        4        5        6        7
   2 C   :3d1-   0.0013  -0.0024  -0.0000  -0.0002   0.0194  -0.0000  -0.0002
   3 C   :3d1-  -0.0102   0.0592  -0.0000   0.0032  -0.0834  -0.0000  -0.0080
   4 C   :3d1-   0.0684  -0.1406  -0.0000  -0.0074   1.4335   0.0000  -0.0067
   5 C   :3d1-  -0.1951   1.3486  -0.0000   0.0245  -1.0764   0.0000   0.0047
   6 C   :3d1-   1.0994  -0.6826   0.0000  -0.0081   0.3614  -0.0000  -0.0012
   7 C   :5g3-   0.0006   0.0007  -0.0694  -0.1859  -0.0121  -0.4383  -1.1592
   8 C   :5g1-  -0.0002  -0.0003  -0.1837   0.0703   0.0046  -1.1596   0.4381
   9 C   :5g3-  -0.0038  -0.0155   0.3912   1.0358   0.0082   0.2096   0.5525
  10 C   :5g1-   0.0014   0.0059   1.0349  -0.3915  -0.0031   0.5545  -0.2088

    Orbital         8        9       10
   1 C   :3d1-   0.0074  -0.0720  -1.1549
   2 C   :3d1-  -0.0214   1.1535   0.5724
   3 C   :3d1-   1.4030  -0.6603  -0.2212
   4 C   :3d1-  -1.1917   0.4035   0.1339
   5 C   :3d1-   0.5591  -0.1843  -0.0624
   6 C   :3d1-  -0.1758   0.0599   0.0206

 Molecular orbitals for symmetry species 8  (Au )
 ------------------------------------------------

    Orbital         1        2        3        4
   1 C   :4f2-  -0.0000   0.0003   0.0007   1.0005
   2 C   :4f2-   0.0417  -0.1126   1.2339  -0.0414
   3 C   :4f2-  -0.2198   1.3250  -0.7768   0.0252
   4 C   :4f2-   1.1167  -0.6418   0.2878  -0.0102



 >>>> Total CPU  time used in SIRIUS :      0.73 seconds
 >>>> Total wall time used in SIRIUS :      0.24 seconds

 
     Date and time (Linux)  : Sun Apr  5 17:36:50 2015
     Host name              : copper                                  


                     .---------------------------------------.
                     | End of Wave Function Section (SIRIUS) |
                     `---------------------------------------'

 >>>> Total CPU  time used in DALTON:   2.47 seconds
 >>>> Total wall time used in DALTON:   1.27 seconds

 
     Date and time (Linux)  : Sun Apr  5 17:36:50 2015
     Host name              : copper                                  
