

     ************************************************************************
     *************** Dalton - An Electronic Structure Program ***************
     ************************************************************************

    This is output from DALTON 2015.0
   ----------------------------------------------------------------------------
    NOTE:
     
    Dalton is an experimental code for the evaluation of molecular
    properties using (MC)SCF, DFT, CI, and CC wave functions.
    The authors accept no responsibility for the performance of
    the code or for the correctness of the results.
     
    The code (in whole or part) is provided under a licence and
    is not to be reproduced for further distribution without
    the written permission of the authors or their representatives.
     
    See the home page "http://daltonprogram.org" for further information.
     
    If results obtained with this code are published,
    the appropriate citations would be both of:
     
       K. Aidas, C. Angeli, K. L. Bak, V. Bakken, R. Bast,
       L. Boman, O. Christiansen, R. Cimiraglia, S. Coriani,
       J. Cukras, P. Dahle, E. K. Dalskov, U. Ekstroem,
       T. Enevoldsen, J. J. Eriksen, P. Ettenhuber, B. Fernandez,
       L. Ferrighi, H. Fliegl, L. Frediani, K. Hald, A. Halkier,
       C. Haettig, H. Heiberg, T. Helgaker, A. C. Hennum,
       H. Hettema, E. Hjertenaes, S. Hoest, I.-M. Hoeyvik,
       M. F. Iozzi, B. Jansik, H. J. Aa. Jensen, D. Jonsson,
       P. Joergensen, M. Kaminski, J. Kauczor, S. Kirpekar,
       T. Kjaergaard, W. Klopper, S. Knecht, R. Kobayashi, H. Koch,
       J. Kongsted, A. Krapp, K. Kristensen, A. Ligabue,
       O. B. Lutnaes, J. I. Melo, K. V. Mikkelsen, R. H. Myhre,
       C. Neiss, C. B. Nielsen, P. Norman, J. Olsen,
       J. M. H. Olsen, A. Osted, M. J. Packer, F. Pawlowski,
       T. B. Pedersen, P. F. Provasi, S. Reine, Z. Rinkevicius,
       T. A. Ruden, K. Ruud, V. Rybkin, P. Salek, C. C. M. Samson,
       A. Sanchez de Meras, T. Saue, S. P. A. Sauer,
       B. Schimmelpfennig, K. Sneskov, A. H. Steindal,
       K. O. Sylvester-Hvid, P. R. Taylor, A. M. Teale,
       E. I. Tellgren, D. P. Tew, A. J. Thorvaldsen, L. Thoegersen,
       O. Vahtras, M. A. Watson, D. J. D. Wilson, M. Ziolkowski
       and H. Agren,
       "The Dalton quantum chemistry program system",
       WIREs Comput. Mol. Sci. 2013. (doi: 10.1002/wcms.1172)
    
    and
    
       Dalton, a Molecular Electronic Structure Program,
       Release DALTON2014.0 (2015), see http://daltonprogram.org
   ----------------------------------------------------------------------------

    Authors in alphabetical order (major contribution(s) in parenthesis):

  Kestutis Aidas,           Vilnius University,           Lithuania   (QM/MM)
  Celestino Angeli,         University of Ferrara,        Italy       (NEVPT2)
  Keld L. Bak,              UNI-C,                        Denmark     (AOSOPPA, non-adiabatic coupling, magnetic properties)
  Vebjoern Bakken,          University of Oslo,           Norway      (DALTON; geometry optimizer, symmetry detection)
  Radovan Bast,             KTH Stockholm,                Sweden      (DALTON installation and execution frameworks)
  Pablo Baudin,             University of Valencia,       Spain       (Cholesky excitation energies)
  Linus Boman,              NTNU,                         Norway      (Cholesky decomposition and subsystems)
  Ove Christiansen,         Aarhus University,            Denmark     (CC module)
  Renzo Cimiraglia,         University of Ferrara,        Italy       (NEVPT2)
  Sonia Coriani,            University of Trieste,        Italy       (CC module, MCD in RESPONS)
  Janusz Cukras,            University of Trieste,        Italy       (MChD in RESPONS)
  Paal Dahle,               University of Oslo,           Norway      (Parallelization)
  Erik K. Dalskov,          UNI-C,                        Denmark     (SOPPA)
  Thomas Enevoldsen,        Univ. of Southern Denmark,    Denmark     (SOPPA)
  Janus J. Eriksen,         Aarhus University,            Denmark     (Polarizable embedding model, TDA)
  Berta Fernandez,          U. of Santiago de Compostela, Spain       (doublet spin, ESR in RESPONS)
  Lara Ferrighi,            Aarhus University,            Denmark     (PCM Cubic response)
  Heike Fliegl,             University of Oslo,           Norway      (CCSD(R12))
  Luca Frediani,            UiT The Arctic U. of Norway,  Norway      (PCM)
  Bin Gao,                  UiT The Arctic U. of Norway,  Norway      (Gen1Int library)
  Christof Haettig,         Ruhr-University Bochum,       Germany     (CC module)
  Kasper Hald,              Aarhus University,            Denmark     (CC module)
  Asger Halkier,            Aarhus University,            Denmark     (CC module)
  Erik D. Hedegaard,        Univ. of Southern Denmark,    Denmark     (Polarizable embedding model, QM/MM)
  Hanne Heiberg,            University of Oslo,           Norway      (geometry analysis, selected one-electron integrals)
  Trygve Helgaker,          University of Oslo,           Norway      (DALTON; ABACUS, ERI, DFT modules, London, and much more)
  Alf Christian Hennum,     University of Oslo,           Norway      (Parity violation)
  Hinne Hettema,            University of Auckland,       New Zealand (quadratic response in RESPONS; SIRIUS supersymmetry)
  Eirik Hjertenaes,         NTNU,                         Norway      (Cholesky decomposition)
  Maria Francesca Iozzi,    University of Oslo,           Norway      (RPA)
  Brano Jansik              Technical Univ. of Ostrava    Czech Rep.  (DFT cubic response)
  Hans Joergen Aa. Jensen,  Univ. of Southern Denmark,    Denmark     (DALTON; SIRIUS, RESPONS, ABACUS modules, London, and much more)
  Dan Jonsson,              UiT The Arctic U. of Norway,  Norway      (cubic response in RESPONS module)
  Poul Joergensen,          Aarhus University,            Denmark     (RESPONS, ABACUS, and CC modules)
  Maciej Kaminski,          University of Warsaw,         Poland      (CPPh in RESPONS)
  Joanna Kauczor,           Linkoeping University,        Sweden      (Complex polarization propagator (CPP) module)
  Sheela Kirpekar,          Univ. of Southern Denmark,    Denmark     (Mass-velocity & Darwin integrals)
  Wim Klopper,              KIT Karlsruhe,                Germany     (R12 code in CC, SIRIUS, and ABACUS modules)
  Stefan Knecht,            ETH Zurich,                   Switzerland (Parallel CI and MCSCF)
  Rika Kobayashi,           Australian National Univ.,    Australia   (DIIS in CC, London in MCSCF)
  Henrik Koch,              NTNU,                         Norway      (CC module, Cholesky decomposition)
  Jacob Kongsted,           Univ. of Southern Denmark,    Denmark     (Polarizable embedding model, QM/MM)
  Andrea Ligabue,           University of Modena,         Italy       (CTOCD, AOSOPPA)
  Nanna H. List             Univ. of Southern Denmark,    Denmark     (Polarizable embedding model)
  Ola B. Lutnaes,           University of Oslo,           Norway      (DFT Hessian)
  Juan I. Melo,             University of Buenos Aires,   Argentina   (LRESC, Relativistic Effects on NMR Shieldings)
  Kurt V. Mikkelsen,        University of Copenhagen,     Denmark     (MC-SCRF and QM/MM)
  Rolf H. Myhre,            NTNU,                         Norway      (Cholesky, subsystems and ECC2)
  Christian Neiss,          Univ. Erlangen-Nuernberg,     Germany     (CCSD(R12))
  Christian B. Nielsen,     University of Copenhagen,     Denmark     (QM/MM)
  Patrick Norman,           Linkoeping University,        Sweden      (Cubic response and complex response in RESPONS)
  Jeppe Olsen,              Aarhus University,            Denmark     (SIRIUS CI/density modules)
  Jogvan Magnus H. Olsen,   Univ. of Southern Denmark,    Denmark     (Polarizable embedding model, QM/MM)
  Anders Osted,             Copenhagen University,        Denmark     (QM/MM)
  Martin J. Packer,         University of Sheffield,      UK          (SOPPA)
  Filip Pawlowski,          Kazimierz Wielki University,  Poland      (CC3)
  Morten N. Pedersen,       Univ. of Southern Denmark,    Denmark     (Polarizable embedding model)
  Thomas B. Pedersen,       University of Oslo,           Norway      (Cholesky decomposition)
  Patricio F. Provasi,      University of Northeastern,   Argentina   (Analysis of coupling constants in localized orbitals)
  Zilvinas Rinkevicius,     KTH Stockholm,                Sweden      (open-shell DFT, ESR)
  Elias Rudberg,            KTH Stockholm,                Sweden      (DFT grid and basis info)
  Torgeir A. Ruden,         University of Oslo,           Norway      (Numerical derivatives in ABACUS)
  Kenneth Ruud,             UiT The Arctic U. of Norway,  Norway      (DALTON; ABACUS magnetic properties and much more)
  Pawel Salek,              KTH Stockholm,                Sweden      (DALTON; DFT code)
  Claire C. M. Samson       University of Karlsruhe       Germany     (Boys localization, r12 integrals in ERI)
  Alfredo Sanchez de Meras, University of Valencia,       Spain       (CC module, Cholesky decomposition)
  Trond Saue,               Paul Sabatier University,     France      (direct Fock matrix construction)
  Stephan P. A. Sauer,      University of Copenhagen,     Denmark     (SOPPA(CCSD), SOPPA prop., AOSOPPA, vibrational g-factors)
  Bernd Schimmelpfennig,    Forschungszentrum Karlsruhe,  Germany     (AMFI module)
  Kristian Sneskov,         Aarhus University,            Denmark     (Polarizable embedding model, QM/MM)
  Arnfinn H. Steindal,      UiT The Arctic U. of Norway,  Norway      (parallel QM/MM, Polarizable embedding model)
  Casper Steinmann,         Univ. of Southern Denmark,    Denmark     (QFIT, Polarizable embedding model)
  K. O. Sylvester-Hvid,     University of Copenhagen,     Denmark     (MC-SCRF)
  Peter R. Taylor,          VLSCI/Univ. of Melbourne,     Australia   (Symmetry handling ABACUS, integral transformation)
  Andrew M. Teale,          University of Nottingham,     England     (DFT-AC, DFT-D)
  David P. Tew,             University of Bristol,        England     (CCSD(R12))
  Olav Vahtras,             KTH Stockholm,                Sweden      (triplet response, spin-orbit, ESR, TDDFT, open-shell DFT)
  David J. Wilson,          La Trobe University,          Australia   (DFT Hessian and DFT magnetizabilities)
  Hans Agren,               KTH Stockholm,                Sweden      (SIRIUS module, RESPONS, MC-SCRF solvation model)
 --------------------------------------------------------------------------------

     Date and time (Linux)  : Tue Jun  2 11:48:10 2015
     Host name              : copper                                  

 * Work memory size             :    64000000 =  488.28 megabytes.

 * Directories for basis set searches:
   1) /home/eric/development/cclib_berquist/data/DALTON/basicDALTON-2015
   2) /home/eric/opt/apps/dalton/2015-i2013.sp1.1-mkl-omp/dalton/basis


Compilation information
-----------------------

 Who compiled             | eric
 Host                     | copper
 System                   | Linux-3.13.0-46-generic
 CMake generator          | Unix Makefiles
 Processor                | x86_64
 64-bit integers          | OFF
 MPI                      | OFF
 Fortran compiler         | /home/eric/opt/apps/intel/2013_sp1_update1/compose
                          | r_xe_2013_sp1.1.106/bin/intel64/ifort
 Fortran compiler version | ifort (IFORT) 14.0.1 20131008
 C compiler               | /home/eric/opt/apps/intel/2013_sp1_update1/compose
                          | r_xe_2013_sp1.1.106/bin/intel64/icc
 C compiler version       | icc (ICC) 14.0.1 20131008
 C++ compiler             | /home/eric/opt/apps/intel/2013_sp1_update1/compose
                          | r_xe_2013_sp1.1.106/bin/intel64/icpc
 C++ compiler version     | icpc (ICC) 14.0.1 20131008
 Static linking           | OFF
 Last Git revision        | d34efb170c481236ad60c789dea90a4c857c6bab
 Configuration time       | 2015-03-16 13:50:41.378554


   Content of the .dal input file
 ----------------------------------

BASIS                                             
aug-cc-pVQZ                                       
Carbon atom                                       
                                                  
AtomTypes=1 Angstrom                              
Charge=6.0 Atoms=1                                
C   0.0 0.0 0.0                                   
                                                  
**DALTON                                          
.RUN WAVE FUNCTIONS                               
*MOLBAS                                           
.PRINT                                            
  2                                               
**WAVE FUNCTIONS                                  
.HF                                               
**END OF                                          


       *******************************************************************
       *********** Output from DALTON general input processing ***********
       *******************************************************************

 --------------------------------------------------------------------------------
   Overall default print level:    0
   Print level for DALTON.STAT:    1

    HERMIT 1- and 2-electron integral sections will be executed
    "Old" integral transformation used (limited to max 255 basis functions)
    Wave function sections will be executed (SIRIUS module)
 --------------------------------------------------------------------------------


 Changes of defaults for *MOLBAS:
 --------------------------------

 Print level in molecule setup (READIN):    2



   ****************************************************************************
   *************** Output of molecule and basis set information ***************
   ****************************************************************************


 Basis set 1 is  "aug-cc-pVQZ" from the basis set library.

    The two title cards from your ".mol" input:
    ------------------------------------------------------------------------
 1: Carbon atom                                                             
 2:                                                                         
    ------------------------------------------------------------------------

  Coordinates are entered in Angstrom and converted to atomic units.
          - Conversion factor : 1 bohr = 0.52917721 A

  Atomic type no.    1
  --------------------
  Nuclear charge:   6.00000
  Number of symmetry independent centers:    1
  Number of basis sets to read;    2
  Basis set file used for this atomic type with Z =   6 :
  Trying file: "/home/eric/development/cclib_berquist/data/DALTON/basicDALTON-2015/aug-cc-pVQZ"
  Trying file: "/home/eric/opt/apps/dalton/2015-i2013.sp1.1-mkl-omp/dalton/basis/aug-cc-pVQZ"
     "/home/eric/opt/apps/dalton/2015-i2013.sp1.1-mkl-omp/dalton/basis/aug-cc-pVQZ"
  Basis set file used for this atomic type with Z =   6 :
     "/home/eric/opt/apps/dalton/2015-i2013.sp1.1-mkl-omp/dalton/basis/ano-4"


                      SYMADD: Requested addition of symmetry
                      --------------------------------------

 Symmetry test threshold:  5.00E-06

@   The molecule is centered at center of mass and rotated
@   so principal axes of inertia are along coordinate axes.

 Symmetry class found: D(oo,h)        

 Symmetry Independent Centres             
 ----------------------------
       6 :      0.00000000     0.00000000     0.00000000  Isotope  1

 The following elements were found:   X  Y  Z  


                         SYMGRP: Point group information
                         -------------------------------

@    Full point group is: D(oo,h)        
@    Represented as:      D2h

@  * The irrep name for each symmetry:    1: Ag     2: B3u    3: B2u    4: B1g    5: B1u    6: B2g    7: B3g    8: Au 


   * The point group was generated by:

      Reflection in the yz-plane
      Reflection in the xz-plane
      Reflection in the xy-plane

   * Group multiplication table

        |  E   C2z  C2y  C2x   i   Oxy  Oxz  Oyz
   -----+----------------------------------------
     E  |  E   C2z  C2y  C2x   i   Oxy  Oxz  Oyz
    C2z | C2z   E   C2x  C2y  Oxy   i   Oyz  Oxz
    C2y | C2y  C2x   E   C2z  Oxz  Oyz   i   Oxy
    C2x | C2x  C2y  C2z   E   Oyz  Oxz  Oxy   i 
     i  |  i   Oxy  Oxz  Oyz   E   C2z  C2y  C2x
    Oxy | Oxy   i   Oyz  Oxz  C2z   E   C2x  C2y
    Oxz | Oxz  Oyz   i   Oxy  C2y  C2x   E   C2z
    Oyz | Oyz  Oxz  Oxy   i   C2x  C2y  C2z   E 

   * Character table

        |  E   C2z  C2y  C2x   i   Oxy  Oxz  Oyz
   -----+----------------------------------------
    Ag  |   1    1    1    1    1    1    1    1
    B3u |   1   -1   -1    1   -1    1    1   -1
    B2u |   1   -1    1   -1   -1    1   -1    1
    B1g |   1    1   -1   -1    1    1   -1   -1
    B1u |   1    1   -1   -1   -1   -1    1    1
    B2g |   1   -1    1   -1    1   -1    1   -1
    B3g |   1   -1   -1    1    1   -1   -1    1
    Au  |   1    1    1    1   -1   -1   -1   -1

   * Direct product table

        | Ag   B3u  B2u  B1g  B1u  B2g  B3g  Au 
   -----+----------------------------------------
    Ag  | Ag   B3u  B2u  B1g  B1u  B2g  B3g  Au 
    B3u | B3u  Ag   B1g  B2u  B2g  B1u  Au   B3g
    B2u | B2u  B1g  Ag   B3u  B3g  Au   B1u  B2g
    B1g | B1g  B2u  B3u  Ag   Au   B3g  B2g  B1u
    B1u | B1u  B2g  B3g  Au   Ag   B3u  B2u  B1g
    B2g | B2g  B1u  Au   B3g  B3u  Ag   B1g  B2u
    B3g | B3g  Au   B1u  B2g  B2u  B1g  Ag   B3u
    Au  | Au   B3g  B2g  B1u  B1g  B2u  B3u  Ag 


                                 Isotopic Masses
                                 ---------------

                           C          12.000000

                       Total mass:    12.000000 amu
                       Natural abundance:  98.900 %

 Center-of-mass coordinates (a.u.):    0.000000    0.000000    0.000000


  Atoms and basis sets
  --------------------

  Number of atom types :    1
  Total number of atoms:    1

  Basis set used is "aug-cc-pVQZ" from the basis set library.

  label    atoms   charge   prim   cont     basis
  ----------------------------------------------------------------------
  C           1    6.0000    93    80      [13s7p4d3f2g|6s5p4d3f2g]                           
  ----------------------------------------------------------------------
  total:      1    6.0000    93    80
  ----------------------------------------------------------------------
  Spherical harmonic basis used.

  Threshold for neglecting AO integrals:  1.00D-12


  Cartesian Coordinates (a.u.)
  ----------------------------

  Total number of coordinates:    3
  C       :     1  x   0.0000000000    2  y   0.0000000000    3  z   0.0000000000


  Symmetry Coordinates
  --------------------

  Number of coordinates in each symmetry:     0    1    1    0    1    0    0    0

  Symmetry  B3u ( 2)

    1   C     x    1

  Symmetry  B2u ( 3)

    2   C     y    2

  Symmetry  B1u ( 5)

    3   C     z    3


@ This is an atomic calculation.


  Orbital exponents and contraction coefficients
  ----------------------------------------------


  C      1s      1    33980.000000      0.0001   -0.0000    0.0000    0.0000    0.0000
                                        0.0000
   gen. cont.    2     5089.000000      0.0007   -0.0002    0.0000    0.0000    0.0000
                                        0.0000
                 3     1157.000000      0.0037   -0.0008    0.0000    0.0000    0.0000
                                        0.0000
                 4      326.600000      0.0154   -0.0033    0.0000    0.0000    0.0000
                                        0.0000
                 5      106.100000      0.0529   -0.0115    0.0000    0.0000    0.0000
                                        0.0000
                 6       38.110000      0.1470   -0.0342    0.0000    0.0000    0.0000
                                        0.0000
                 7       14.750000      0.3056   -0.0772    0.0000    0.0000    0.0000
                                        0.0000
                 8        6.035000      0.3993   -0.1415    0.0000    0.0000    0.0000
                                        0.0000
                 9        2.530000      0.2171   -0.1180    0.0000    0.0000    0.0000
                                        0.0000
                10        0.735500      0.0159    0.2738    1.0000    0.0000    0.0000
                                        0.0000
                11        0.290500     -0.0031    0.5865    0.0000    1.0000    0.0000
                                        0.0000
                12        0.111100      0.0010    0.2854    0.0000    0.0000    1.0000
                                        0.0000
                13        0.041450      0.0000    0.0000    0.0000    0.0000    0.0000
                                        1.0000

  C      2px    14       34.510000      0.0054    0.0000    0.0000    0.0000    0.0000
   gen. cont.   15        7.915000      0.0361    0.0000    0.0000    0.0000    0.0000
                16        2.368000      0.1425    0.0000    0.0000    0.0000    0.0000
                17        0.813200      0.3422    1.0000    0.0000    0.0000    0.0000
                18        0.289000      0.4639    0.0000    1.0000    0.0000    0.0000
                19        0.100700      0.2500    0.0000    0.0000    1.0000    0.0000
                20        0.032180      0.0000    0.0000    0.0000    0.0000    1.0000

  C      2py    21       34.510000      0.0054    0.0000    0.0000    0.0000    0.0000
   gen. cont.   22        7.915000      0.0361    0.0000    0.0000    0.0000    0.0000
                23        2.368000      0.1425    0.0000    0.0000    0.0000    0.0000
                24        0.813200      0.3422    1.0000    0.0000    0.0000    0.0000
                25        0.289000      0.4639    0.0000    1.0000    0.0000    0.0000
                26        0.100700      0.2500    0.0000    0.0000    1.0000    0.0000
                27        0.032180      0.0000    0.0000    0.0000    0.0000    1.0000

  C      2pz    28       34.510000      0.0054    0.0000    0.0000    0.0000    0.0000
   gen. cont.   29        7.915000      0.0361    0.0000    0.0000    0.0000    0.0000
                30        2.368000      0.1425    0.0000    0.0000    0.0000    0.0000
                31        0.813200      0.3422    1.0000    0.0000    0.0000    0.0000
                32        0.289000      0.4639    0.0000    1.0000    0.0000    0.0000
                33        0.100700      0.2500    0.0000    0.0000    1.0000    0.0000
                34        0.032180      0.0000    0.0000    0.0000    0.0000    1.0000

  C      3d2-   35        1.848000      1.0000    0.0000    0.0000    0.0000
   seg. cont.   36        0.649000      0.0000    1.0000    0.0000    0.0000
                37        0.228000      0.0000    0.0000    1.0000    0.0000
                38        0.076600      0.0000    0.0000    0.0000    1.0000

  C      3d1-   39        1.848000      1.0000    0.0000    0.0000    0.0000
   seg. cont.   40        0.649000      0.0000    1.0000    0.0000    0.0000
                41        0.228000      0.0000    0.0000    1.0000    0.0000
                42        0.076600      0.0000    0.0000    0.0000    1.0000

  C      3d0    43        1.848000      1.0000    0.0000    0.0000    0.0000
   seg. cont.   44        0.649000      0.0000    1.0000    0.0000    0.0000
                45        0.228000      0.0000    0.0000    1.0000    0.0000
                46        0.076600      0.0000    0.0000    0.0000    1.0000

  C      3d1+   47        1.848000      1.0000    0.0000    0.0000    0.0000
   seg. cont.   48        0.649000      0.0000    1.0000    0.0000    0.0000
                49        0.228000      0.0000    0.0000    1.0000    0.0000
                50        0.076600      0.0000    0.0000    0.0000    1.0000

  C      3d2+   51        1.848000      1.0000    0.0000    0.0000    0.0000
   seg. cont.   52        0.649000      0.0000    1.0000    0.0000    0.0000
                53        0.228000      0.0000    0.0000    1.0000    0.0000
                54        0.076600      0.0000    0.0000    0.0000    1.0000

  C      4f3-   55        1.419000      1.0000    0.0000    0.0000
   seg. cont.   56        0.485000      0.0000    1.0000    0.0000
                57        0.187000      0.0000    0.0000    1.0000

  C      4f2-   58        1.419000      1.0000    0.0000    0.0000
   seg. cont.   59        0.485000      0.0000    1.0000    0.0000
                60        0.187000      0.0000    0.0000    1.0000

  C      4f1-   61        1.419000      1.0000    0.0000    0.0000
   seg. cont.   62        0.485000      0.0000    1.0000    0.0000
                63        0.187000      0.0000    0.0000    1.0000

  C      4f0    64        1.419000      1.0000    0.0000    0.0000
   seg. cont.   65        0.485000      0.0000    1.0000    0.0000
                66        0.187000      0.0000    0.0000    1.0000

  C      4f1+   67        1.419000      1.0000    0.0000    0.0000
   seg. cont.   68        0.485000      0.0000    1.0000    0.0000
                69        0.187000      0.0000    0.0000    1.0000

  C      4f2+   70        1.419000      1.0000    0.0000    0.0000
   seg. cont.   71        0.485000      0.0000    1.0000    0.0000
                72        0.187000      0.0000    0.0000    1.0000

  C      4f3+   73        1.419000      1.0000    0.0000    0.0000
   seg. cont.   74        0.485000      0.0000    1.0000    0.0000
                75        0.187000      0.0000    0.0000    1.0000

  C      5g4-   76        1.011000      1.0000    0.0000
   seg. cont.   77        0.424000      0.0000    1.0000

  C      5g3-   78        1.011000      1.0000    0.0000
   seg. cont.   79        0.424000      0.0000    1.0000

  C      5g2-   80        1.011000      1.0000    0.0000
   seg. cont.   81        0.424000      0.0000    1.0000

  C      5g1-   82        1.011000      1.0000    0.0000
   seg. cont.   83        0.424000      0.0000    1.0000

  C      5g0    84        1.011000      1.0000    0.0000
   seg. cont.   85        0.424000      0.0000    1.0000

  C      5g1+   86        1.011000      1.0000    0.0000
   seg. cont.   87        0.424000      0.0000    1.0000

  C      5g2+   88        1.011000      1.0000    0.0000
   seg. cont.   89        0.424000      0.0000    1.0000

  C      5g3+   90        1.011000      1.0000    0.0000
   seg. cont.   91        0.424000      0.0000    1.0000

  C      5g4+   92        1.011000      1.0000    0.0000
   seg. cont.   93        0.424000      0.0000    1.0000


  Contracted Orbitals
  -------------------

    1  C       1s      1    2    3    4    5    6    7    8    9   10   11   12
    2  C       1s      1    2    3    4    5    6    7    8    9   10   11   12
    3  C       1s     10
    4  C       1s     11
    5  C       1s     12
    6  C       1s     13
    7  C       2px    14   15   16   17   18   19
    8  C       2py    21   22   23   24   25   26
    9  C       2pz    28   29   30   31   32   33
   10  C       2px    17
   11  C       2py    24
   12  C       2pz    31
   13  C       2px    18
   14  C       2py    25
   15  C       2pz    32
   16  C       2px    19
   17  C       2py    26
   18  C       2pz    33
   19  C       2px    20
   20  C       2py    27
   21  C       2pz    34
   22  C       3d2-   35
   23  C       3d1-   39
   24  C       3d0    43
   25  C       3d1+   47
   26  C       3d2+   51
   27  C       3d2-   36
   28  C       3d1-   40
   29  C       3d0    44
   30  C       3d1+   48
   31  C       3d2+   52
   32  C       3d2-   37
   33  C       3d1-   41
   34  C       3d0    45
   35  C       3d1+   49
   36  C       3d2+   53
   37  C       3d2-   38
   38  C       3d1-   42
   39  C       3d0    46
   40  C       3d1+   50
   41  C       3d2+   54
   42  C       4f3-   55
   43  C       4f2-   58
   44  C       4f1-   61
   45  C       4f0    64
   46  C       4f1+   67
   47  C       4f2+   70
   48  C       4f3+   73
   49  C       4f3-   56
   50  C       4f2-   59
   51  C       4f1-   62
   52  C       4f0    65
   53  C       4f1+   68
   54  C       4f2+   71
   55  C       4f3+   74
   56  C       4f3-   57
   57  C       4f2-   60
   58  C       4f1-   63
   59  C       4f0    66
   60  C       4f1+   69
   61  C       4f2+   72
   62  C       4f3+   75
   63  C       5g4-   76
   64  C       5g3-   78
   65  C       5g2-   80
   66  C       5g1-   82
   67  C       5g0    84
   68  C       5g1+   86
   69  C       5g2+   88
   70  C       5g3+   90
   71  C       5g4+   92
   72  C       5g4-   77
   73  C       5g3-   79
   74  C       5g2-   81
   75  C       5g1-   83
   76  C       5g0    85
   77  C       5g1+   87
   78  C       5g2+   89
   79  C       5g3+   91
   80  C       5g4+   93




  Symmetry Orbitals
  -----------------

  Number of orbitals in each symmetry:          20   11   11    8   11    8    8    3


  Symmetry  Ag ( 1)

    1     C        1s         1
    2     C        1s         2
    3     C        1s         3
    4     C        1s         4
    5     C        1s         5
    6     C        1s         6
    7     C        3d0       24
    8     C        3d2+      26
    9     C        3d0       29
   10     C        3d2+      31
   11     C        3d0       34
   12     C        3d2+      36
   13     C        3d0       39
   14     C        3d2+      41
   15     C        5g0       67
   16     C        5g2+      69
   17     C        5g4+      71
   18     C        5g0       76
   19     C        5g2+      78
   20     C        5g4+      80


  Symmetry  B3u( 2)

   21     C        2px        7
   22     C        2px       10
   23     C        2px       13
   24     C        2px       16
   25     C        2px       19
   26     C        4f1+      46
   27     C        4f3+      48
   28     C        4f1+      53
   29     C        4f3+      55
   30     C        4f1+      60
   31     C        4f3+      62


  Symmetry  B2u( 3)

   32     C        2py        8
   33     C        2py       11
   34     C        2py       14
   35     C        2py       17
   36     C        2py       20
   37     C        4f3-      42
   38     C        4f1-      44
   39     C        4f3-      49
   40     C        4f1-      51
   41     C        4f3-      56
   42     C        4f1-      58


  Symmetry  B1g( 4)

   43     C        3d2-      22
   44     C        3d2-      27
   45     C        3d2-      32
   46     C        3d2-      37
   47     C        5g4-      63
   48     C        5g2-      65
   49     C        5g4-      72
   50     C        5g2-      74


  Symmetry  B1u( 5)

   51     C        2pz        9
   52     C        2pz       12
   53     C        2pz       15
   54     C        2pz       18
   55     C        2pz       21
   56     C        4f0       45
   57     C        4f2+      47
   58     C        4f0       52
   59     C        4f2+      54
   60     C        4f0       59
   61     C        4f2+      61


  Symmetry  B2g( 6)

   62     C        3d1+      25
   63     C        3d1+      30
   64     C        3d1+      35
   65     C        3d1+      40
   66     C        5g1+      68
   67     C        5g3+      70
   68     C        5g1+      77
   69     C        5g3+      79


  Symmetry  B3g( 7)

   70     C        3d1-      23
   71     C        3d1-      28
   72     C        3d1-      33
   73     C        3d1-      38
   74     C        5g3-      64
   75     C        5g1-      66
   76     C        5g3-      73
   77     C        5g1-      75


  Symmetry  Au ( 8)

   78     C        4f2-      43
   79     C        4f2-      50
   80     C        4f2-      57

  Symmetries of electric field:  B3u(2)  B2u(3)  B1u(5)

  Symmetries of magnetic field:  B3g(7)  B2g(6)  B1g(4)


 Copy of .mol input
 ------------------

 - as modified by symmetry addition module

--------------------------------------------------------------------------------
BASIS                                                                           
aug-cc-pVQZ                                                                     
Carbon atom                                                                     
                                                                                
ATOMTYPES=1 GENERATORS=3 X  Y  Z                                                
Charge=6.0 Atoms=1                                                              
C      0.000000000000000   0.000000000000000   0.000000000000000                
--------------------------------------------------------------------------------



                     .---------------------------------------.
                     | Starting in Integral Section (HERMIT) |
                     `---------------------------------------'



 ***************************************************************************************
 ****************** Output from **INTEGRALS input processing (HERMIT) ******************
 ***************************************************************************************


 - Using defaults, no **INTEGRALS input found

 Default print level:        1

 * Nuclear model: Point charge

 Calculation of one- and two-electron Hamiltonian integrals.

 Center of mass  (bohr):      0.000000000000      0.000000000000      0.000000000000
 Operator center (bohr):      0.000000000000      0.000000000000      0.000000000000
 Gauge origin    (bohr):      0.000000000000      0.000000000000      0.000000000000
 Dipole origin   (bohr):      0.000000000000      0.000000000000      0.000000000000


     ************************************************************************
     ************************** Output from HERINT **************************
     ************************************************************************


 Threshold for neglecting two-electron integrals:  1.00D-12
 HERMIT - Number of two-electron integrals written:      497710 (  9.5% )
 HERMIT - Megabytes written:                              5.702

 >>>  Time used in TWOINT     is   0.49 seconds
 >>>> Total CPU  time used in HERMIT:   0.54 seconds
 >>>> Total wall time used in HERMIT:   0.21 seconds


                        .----------------------------------.
                        | End of Integral Section (HERMIT) |
                        `----------------------------------'



                   .--------------------------------------------.
                   | Starting in Wave Function Section (SIRIUS) |
                   `--------------------------------------------'


 *** Output from Huckel module :

     Using EWMO model:          T
     Using EHT  model:          F
     Number of Huckel orbitals each symmetry:    2    1    1    0    1    0    0    0

 EWMO - Energy Weighted Maximum Overlap - is a Huckel type method,
        which normally is better than Extended Huckel Theory.
 Reference: Linderberg and Ohrn, Propagators in Quantum Chemistry (Wiley, 1973)

 Huckel EWMO eigenvalues for symmetry :  1
          -11.338400      -0.712100

 Huckel EWMO eigenvalues for symmetry :  2
           -0.406900

 Huckel EWMO eigenvalues for symmetry :  3
           -0.406900

 Huckel EWMO eigenvalues for symmetry :  5
           -0.406900

 **********************************************************************
 *SIRIUS* a direct, restricted step, second order MCSCF program       *
 **********************************************************************

 
     Date and time (Linux)  : Tue Jun  2 11:48:11 2015
     Host name              : copper                                  

 Title lines from ".mol" input file:
     Carbon atom                                                             
                                                                             

 Print level on unit LUPRI =   2 is   0
 Print level on unit LUW4  =   2 is   5

@    Restricted, closed shell Hartree-Fock calculation.

 Initial molecular orbitals are obtained according to
 ".MOSTART EWMO  " input option

     Wave function specification
     ============================
@    Wave function type        >>> HF <<<
@    Number of closed shell electrons           6
@    Number of electrons in active shells       0
@    Total charge of the molecule               0

@    Spin multiplicity and 2 M_S                1         0
@    Total number of symmetries                 8 (point group: D2h)
@    Reference state symmetry                   1 (irrep name : Ag )

     Orbital specifications
     ======================
@    Abelian symmetry species          All |    1    2    3    4    5    6    7    8
@                                          |  Ag   B3u  B2u  B1g  B1u  B2g  B3g  Au 
                                       --- |  ---  ---  ---  ---  ---  ---  ---  ---
@    Total number of orbitals           80 |   20   11   11    8   11    8    8    3
@    Number of basis functions          80 |   20   11   11    8   11    8    8    3

      ** Automatic occupation of RHF orbitals **

      -- Initial occupation of symmetries is determined from extended Huckel guess.           
      -- Initial occupation of symmetries is :
@    Occupied SCF orbitals               3 |    2    1    0    0    0    0    0    0

     Maximum number of Fock   iterations      0
     Maximum number of DIIS   iterations     60
     Maximum number of QC-SCF iterations     60
     Threshold for SCF convergence     1.00D-05


 ***********************************************
 ***** DIIS acceleration of SCF iterations *****
 ***********************************************

 C1-DIIS algorithm; max error vectors =    8

 Automatic occupation of symmetries with   6 electrons.

 Iter     Total energy    Error norm  Delta(E)    SCF occupation
 -----------------------------------------------------------------------------
     (Precalculated two-electron integrals are transformed to P-supermatrix elements.
      Threshold for discarding integrals :  1.00D-12 )
 >>>  Time used in FORMSUP    is   0.13 seconds
@  1  -37.6013033959       2.84D-01  -3.76D+01     2   1   0   0   0   0   0   0
      Virial theorem: -V/T =      1.998537
@      MULPOP C      -0.00; 
 -----------------------------------------------------------------------------
@  2  -37.6044152509       3.25D-02  -3.11D-03     2   1   0   0   0   0   0   0
      Virial theorem: -V/T =      2.000334
@      MULPOP C      -0.00; 
 -----------------------------------------------------------------------------
@  3  -37.6045372372       5.52D-03  -1.22D-04     2   1   0   0   0   0   0   0
      Virial theorem: -V/T =      1.999987
@      MULPOP C      -0.00; 
 -----------------------------------------------------------------------------
@  4  -37.6045424971       7.64D-04  -5.26D-06     2   1   0   0   0   0   0   0
      Virial theorem: -V/T =      2.000036
@      MULPOP C       0.00; 
 -----------------------------------------------------------------------------
@  5  -37.6045426439       1.19D-04  -1.47D-07     2   1   0   0   0   0   0   0
      Virial theorem: -V/T =      2.000024
@      MULPOP C      -0.00; 
 -----------------------------------------------------------------------------
@  6  -37.6045426483       2.61D-05  -4.33D-09     2   1   0   0   0   0   0   0
      Virial theorem: -V/T =      2.000024
@      MULPOP C      -0.00; 
 -----------------------------------------------------------------------------
@  7  -37.6045426484       4.40D-06  -1.67D-10     2   1   0   0   0   0   0   0

@ *** DIIS converged in   7 iterations !
@     Converged SCF energy, gradient:    -37.604542648422    4.40D-06
    - total time used in SIRFCK :              0.00 seconds


 *** SCF orbital energy analysis ***

 Only the 20 lowest virtual orbital energies printed in each symmetry.

 Number of electrons :    6
 Orbital occupations :    2    1    0    0    0    0    0    0

 Sym       Hartree-Fock orbital energies

1 Ag    -11.36498923    -0.72562994     0.08341914     0.23237409     0.24541770
          0.50320719     0.77566964     0.79843492     2.08998949     2.10756181
          2.13862775     2.15489033     2.19726972     2.24477440     5.87388367
          5.95483200     5.98171833     6.32804613     6.40137004    20.42258052

2 B3u    -0.35843012     0.08990043     0.44533133     0.76226449     0.77742616
          1.60860597     2.28314357     2.31466542     5.81420970     6.47304757
          6.51803111

3 B2u     0.01885797     0.10824450     0.46396825     0.74414460     0.77356835
          1.59145162     2.24517030     2.30666416     5.76711561     6.41813104
          6.50666290

4 B1g     0.24164036     0.79114483     2.11833450     2.15082182     2.23152608
          5.92115764     5.97500113     6.38281455

5 B1u     0.01885797     0.10824450     0.46396825     0.74414460     0.77356835
          1.59145163     2.24517030     2.30666417     5.76711562     6.41813104
          6.50666290

6 B2g     0.24164036     0.79114483     2.11833450     2.15082182     2.23152608
          5.92115764     5.97500113     6.38281455

7 B3g     0.23237409     0.77566964     2.08998949     2.13862775     2.19726972
          5.87388367     5.95483200     6.32804613

8 Au      0.76226449     2.28314357     6.47304757

    E(LUMO) :     0.01885797 au (symmetry 5)
  - E(HOMO) :    -0.35843012 au (symmetry 2)
  ------------------------------------------
    gap     :     0.37728809 au

 >>> Writing SIRIFC interface file

 >>>> CPU and wall time for SCF :       0.213       0.036


                       .-----------------------------------.
                       | >>> Final results from SIRIUS <<< |
                       `-----------------------------------'


@    Spin multiplicity:           1
@    Spatial symmetry:            1 ( irrep  Ag  in D2h )
@    Total charge of molecule:    0

@    Final HF energy:             -37.604542648422                 
@    Nuclear repulsion:             0.000000000000
@    Electronic energy:           -37.604542648422

@    Final gradient norm:           0.000004397585

 
     Date and time (Linux)  : Tue Jun  2 11:48:11 2015
     Host name              : copper                                  

File label for MO orbitals:   2Jun15   FOCKDIIS

 (Only coefficients >0.0100 are printed.)

 Molecular orbitals for symmetry species 1  (Ag )
 ------------------------------------------------

    Orbital         1        2        3        4        5        6        7
   1 C   :1s     1.0003   0.0006  -0.0269  -0.0000  -0.0046   0.0828   0.0000
   2 C   :1s     0.0005   1.0105  -0.3443   0.0000  -0.0278  -0.2744  -0.0000
   3 C   :1s    -0.0003   0.0043  -0.0796  -0.0000  -0.0153   0.3498  -0.0000
   4 C   :1s    -0.0007  -0.0007   0.4268   0.0000   0.0900  -2.4914  -0.0000
   5 C   :1s     0.0005  -0.0169  -1.2605  -0.0000  -0.1593   3.8060   0.0000
   6 C   :1s    -0.0004   0.0029   1.8140   0.0000   0.1385  -1.5460  -0.0000
   7 C   :3d0    0.0001  -0.0011  -0.0002  -0.0080   0.0046   0.0017   0.0499
   8 C   :3d2+  -0.0002   0.0019   0.0004  -0.0046  -0.0079  -0.0029   0.0288
   9 C   :3d0   -0.0005   0.0003  -0.0000   0.0585  -0.0363  -0.0131  -0.1202
  10 C   :3d2+   0.0009  -0.0006   0.0000   0.0337   0.0629   0.0227  -0.0694
  11 C   :3d0    0.0000  -0.0043  -0.0053  -0.1684   0.0987   0.0415   1.1670
  12 C   :3d2+  -0.0001   0.0074   0.0092  -0.0972  -0.1709  -0.0719   0.6738
  13 C   :3d0   -0.0000  -0.0022   0.0311   0.9519  -0.5490  -0.0312  -0.5910
  14 C   :3d2+   0.0001   0.0038  -0.0539   0.5496   0.9509   0.0540  -0.3412
  20 C   :5g4+  -0.0000  -0.0003   0.0002  -0.0027  -0.0047   0.0007  -0.0110

    Orbital         8        9       10       11       12
   1 C   :1s    -0.0117  -0.0000  -0.5588  -0.0000  -0.0023
   2 C   :1s    -0.0266  -0.0000  -3.6690  -0.0000  -0.0153
   3 C   :1s    -0.0416  -0.0000  -2.2870  -0.0000  -0.0096
   4 C   :1s     0.1994   0.0000   6.6110   0.0000   0.0272
   5 C   :1s    -0.2030  -0.0000  -1.6018  -0.0000  -0.0059
   6 C   :1s     0.0873   0.0000   0.7858   0.0000   0.0030
   7 C   :3d0    0.0303  -0.0000  -0.0098   0.0026  -0.0024
   8 C   :3d2+  -0.0524   0.0000   0.0170   0.0015   0.0042
   9 C   :3d0   -0.0658   0.0000   0.0528  -0.0049   0.0060
  10 C   :3d2+   0.1140  -0.0000  -0.0915  -0.0028  -0.0104
  11 C   :3d0    0.6697  -0.0000  -0.0453   0.0201  -0.0193
  12 C   :3d2+  -1.1599   0.0000   0.0784   0.0116   0.0335
  13 C   :3d0   -0.3394   0.0000   0.0170  -0.0066   0.0064
  14 C   :3d2+   0.5879  -0.0000  -0.0295  -0.0038  -0.0110
  15 C   :5g0   -0.0004  -0.1453   0.0008   0.1111  -0.0748
  16 C   :5g2+   0.0006  -0.1299  -0.0012  -0.0994   0.1115
  17 C   :5g4+  -0.0008  -0.0246   0.0016  -0.1315  -0.1475
  18 C   :5g0    0.0097   0.8182  -0.0022  -0.6190   0.4153
  19 C   :5g2+  -0.0144   0.7318   0.0033   0.5537  -0.6191
  20 C   :5g4+   0.0191   0.1383  -0.0043   0.7324   0.8190

 Molecular orbitals for symmetry species 2  (B3u)
 ------------------------------------------------

    Orbital         1        2        3        4        5        6        7
   1 C   :2px    0.9814   0.1951  -0.8163   0.0000  -0.0251  -1.1166  -0.0000
   2 C   :2px   -0.0103   0.0383   0.1952   0.0000   0.0179  -0.9425  -0.0000
   3 C   :2px   -0.0134  -0.1109  -0.6312  -0.0000  -0.0415   2.6153   0.0000
   4 C   :2px    0.0436   0.4809   2.0814   0.0000   0.0990  -0.9162  -0.0000
   5 C   :2px    0.0238  -1.2681  -0.7802  -0.0000  -0.0314   0.3613   0.0000
   6 C   :4f1+   0.0025   0.0004  -0.0010   0.0330  -0.0260  -0.0084  -0.0890
   7 C   :4f3+  -0.0033  -0.0005   0.0013   0.0255   0.0335   0.0108  -0.0689
   8 C   :4f1+   0.0057   0.0026  -0.0095  -0.1738   0.1363   0.0332   1.0475
   9 C   :4f3+  -0.0074  -0.0034   0.0123  -0.1346  -0.1759  -0.0429   0.8114
  10 C   :4f1+   0.0048  -0.0039   0.0324   0.8829  -0.6840  -0.0193  -0.5074
  11 C   :4f3+  -0.0061   0.0051  -0.0418   0.6839   0.8830   0.0250  -0.3930

    Orbital         8        9       10       11
   1 C   :2px   -0.0069  -8.4888  -0.0000  -0.3199
   2 C   :2px   -0.0435   4.7610   0.0000   0.1946
   3 C   :2px    0.0912   2.6988   0.0000   0.0886
   4 C   :2px   -0.0484   2.6792   0.0000   0.1064
   5 C   :2px    0.0144  -0.1659  -0.0000  -0.0077
   6 C   :4f1+   0.0690   0.0300   0.9755  -0.7549
   7 C   :4f3+  -0.0891  -0.0387   0.7556   0.9746
   8 C   :4f1+  -0.8106  -0.0204  -0.6141   0.4748
   9 C   :4f3+   1.0465   0.0263  -0.4757  -0.6130
  10 C   :4f1+   0.3912   0.0082   0.2275  -0.1756
  11 C   :4f3+  -0.5050  -0.0106   0.1762   0.2267

 Molecular orbitals for symmetry species 3  (B2u)
 ------------------------------------------------

    Orbital         1        2        3        4        5        6        7
   1 C   :2py    0.5694   0.4713  -0.9138   0.0000  -0.0215  -1.1216  -0.0000
   2 C   :2py   -0.0115   0.0416   0.1968  -0.0000   0.0148  -0.9697  -0.0000
   3 C   :2py    0.0360  -0.1060  -0.7107   0.0000  -0.0356   2.5806  -0.0000
   4 C   :2py    0.0954   0.6895   2.0287  -0.0000   0.0809  -0.8916  -0.0000
   5 C   :2py    0.5280  -1.1881  -0.7292   0.0000  -0.0256   0.3555   0.0000
   6 C   :4f3-  -0.0020  -0.0015   0.0016   0.0102   0.0409   0.0110  -0.0280
   7 C   :4f1-   0.0005   0.0004  -0.0004   0.0395  -0.0106  -0.0028  -0.1085
   8 C   :4f3-  -0.0038  -0.0056   0.0144  -0.0540  -0.2148  -0.0413   0.3313
   9 C   :4f1-   0.0010   0.0014  -0.0037  -0.2091   0.0555   0.0107   1.2831
  10 C   :4f3-  -0.0114  -0.0019  -0.0409   0.2787   1.0815   0.0243  -0.1611
  11 C   :4f1-   0.0030   0.0005   0.0106   1.0795  -0.2792  -0.0063  -0.6241

    Orbital         8        9       10
   1 C   :2py   -0.0050  -8.5074   0.0000
   2 C   :2py   -0.0352   4.7571  -0.0000
   3 C   :2py    0.0719   2.7136  -0.0000
   4 C   :2py   -0.0386   2.6826  -0.0000
   5 C   :2py    0.0115  -0.1659   0.0000
   6 C   :4f3-  -0.1092  -0.0368   0.3085
   7 C   :4f1-   0.0282   0.0095   1.1948
   8 C   :4f3-   1.2821   0.0251  -0.1944
   9 C   :4f1-  -0.3310  -0.0065  -0.7529
  10 C   :4f3-  -0.6193  -0.0102   0.0722
  11 C   :4f1-   0.1599   0.0026   0.2795

 Molecular orbitals for symmetry species 4  (B1g)
 ------------------------------------------------

    Orbital         1        2        3        4        5        6        7
   1 C   :3d2-  -0.0092   0.0600   0.0000   0.0043  -0.0670   0.0000  -0.0102
   2 C   :3d2-   0.0717  -0.1336  -0.0000  -0.0097   1.4223  -0.0000  -0.0105
   3 C   :3d2-  -0.1963   1.3429   0.0000   0.0343  -1.0782   0.0000   0.0071
   4 C   :3d2-   1.0995  -0.6819  -0.0000  -0.0113   0.3603  -0.0000  -0.0019
   5 C   :5g4-   0.0009   0.0009  -0.0699  -0.1865  -0.0172  -0.4382  -1.1590
   6 C   :5g2-  -0.0003  -0.0003  -0.1850   0.0705   0.0065  -1.1594   0.4381
   7 C   :5g4-  -0.0054  -0.0220   0.3914   1.0360   0.0113   0.2091   0.5520
   8 C   :5g2-   0.0021   0.0083   1.0355  -0.3916  -0.0043   0.5533  -0.2086

    Orbital         8
   1 C   :3d2-   1.3913
   2 C   :3d2-  -1.1896
   3 C   :3d2-   0.5575
   4 C   :3d2-  -0.1751

 Molecular orbitals for symmetry species 5  (B1u)
 ------------------------------------------------

    Orbital         1        2        3        4        5        6        7
   1 C   :2pz    0.5694   0.4713  -0.9138   0.0000  -0.0215  -1.1216  -0.0000
   2 C   :2pz   -0.0115   0.0416   0.1968  -0.0000   0.0148  -0.9697   0.0000
   3 C   :2pz    0.0360  -0.1060  -0.7107   0.0000  -0.0356   2.5806  -0.0000
   4 C   :2pz    0.0954   0.6895   2.0287  -0.0000   0.0809  -0.8916   0.0000
   5 C   :2pz    0.5280  -1.1881  -0.7292   0.0000  -0.0256   0.3555  -0.0000
   6 C   :4f0    0.0013   0.0009  -0.0010   0.0323  -0.0259  -0.0069  -0.0886
   7 C   :4f2+  -0.0017  -0.0012   0.0013   0.0250   0.0334   0.0089  -0.0686
   8 C   :4f0    0.0024   0.0035  -0.0091  -0.1707   0.1358   0.0261   1.0476
   9 C   :4f2+  -0.0031  -0.0045   0.0117  -0.1322  -0.1754  -0.0337   0.8115
  10 C   :4f0    0.0072   0.0012   0.0259   0.8814  -0.6840  -0.0154  -0.5096
  11 C   :4f2+  -0.0093  -0.0016  -0.0334   0.6828   0.8830   0.0198  -0.3947

    Orbital         8        9       10
   1 C   :2pz   -0.0050  -8.5074   0.0000
   2 C   :2pz   -0.0352   4.7571  -0.0000
   3 C   :2pz    0.0719   2.7136  -0.0000
   4 C   :2pz   -0.0386   2.6826  -0.0000
   5 C   :2pz    0.0115  -0.1659   0.0000
   6 C   :4f0    0.0690   0.0232   0.9755
   7 C   :4f2+  -0.0891  -0.0300   0.7557
   8 C   :4f0   -0.8109  -0.0159  -0.6148
   9 C   :4f2+   1.0468   0.0205  -0.4762
  10 C   :4f0    0.3917   0.0064   0.2282
  11 C   :4f2+  -0.5057  -0.0083   0.1768

 Molecular orbitals for symmetry species 6  (B2g)
 ------------------------------------------------

    Orbital         1        2        3        4        5        6        7
   1 C   :3d1+  -0.0092   0.0600  -0.0000  -0.0043  -0.0670  -0.0000   0.0102
   2 C   :3d1+   0.0717  -0.1336  -0.0000   0.0097   1.4223   0.0000   0.0105
   3 C   :3d1+  -0.1963   1.3429  -0.0000  -0.0343  -1.0782  -0.0000  -0.0071
   4 C   :3d1+   1.0995  -0.6819   0.0000   0.0113   0.3603   0.0000   0.0019
   5 C   :5g1+  -0.0007  -0.0007  -0.1308  -0.1495   0.0138  -0.8198  -0.9293
   6 C   :5g3+   0.0006   0.0006  -0.1483   0.1318  -0.0121  -0.9296   0.8196
   7 C   :5g1+   0.0043   0.0177   0.7322   0.8306  -0.0090   0.3913   0.4425
   8 C   :5g3+  -0.0038  -0.0156   0.8303  -0.7325   0.0080   0.4437  -0.3903

    Orbital         8
   1 C   :3d1+   1.3913
   2 C   :3d1+  -1.1896
   3 C   :3d1+   0.5575
   4 C   :3d1+  -0.1751

 Molecular orbitals for symmetry species 7  (B3g)
 ------------------------------------------------

    Orbital         1        2        3        4        5        6        7
   1 C   :3d1-  -0.0093   0.0576  -0.0000   0.0030  -0.0701   0.0000  -0.0083
   2 C   :3d1-   0.0675  -0.1388  -0.0000  -0.0057   1.4248  -0.0000  -0.0065
   3 C   :3d1-  -0.1944   1.3475  -0.0000   0.0232  -1.0731  -0.0000   0.0046
   4 C   :3d1-   1.0991  -0.6824   0.0000  -0.0076   0.3607   0.0000  -0.0012
   5 C   :5g3-   0.0006   0.0007  -0.0694  -0.1859  -0.0119  -0.4383  -1.1592
   6 C   :5g1-  -0.0002  -0.0003  -0.1837   0.0703   0.0045  -1.1596   0.4381
   7 C   :5g3-  -0.0038  -0.0155   0.3912   1.0358   0.0070   0.2096   0.5525
   8 C   :5g1-   0.0014   0.0059   1.0349  -0.3915  -0.0026   0.5545  -0.2088

    Orbital         8
   1 C   :3d1-   1.3912
   2 C   :3d1-  -1.1864
   3 C   :3d1-   0.5575
   4 C   :3d1-  -0.1753

 Molecular orbitals for symmetry species 8  (Au )
 ------------------------------------------------

    Orbital         1        2        3
   1 C   :4f2-   0.0417  -0.1126   1.2339
   2 C   :4f2-  -0.2198   1.3250  -0.7768
   3 C   :4f2-   1.1167  -0.6418   0.2878



 >>>> Total CPU  time used in SIRIUS :      0.56 seconds
 >>>> Total wall time used in SIRIUS :      0.09 seconds

 
     Date and time (Linux)  : Tue Jun  2 11:48:11 2015
     Host name              : copper                                  


                     .---------------------------------------.
                     | End of Wave Function Section (SIRIUS) |
                     `---------------------------------------'

 >>>> Total CPU  time used in DALTON:   1.11 seconds
 >>>> Total wall time used in DALTON:   0.47 seconds

 
     Date and time (Linux)  : Tue Jun  2 11:48:11 2015
     Host name              : copper                                  
