

     ************************************************************************
     *************** Dalton - An Electronic Structure Program ***************
     ************************************************************************

    This is output from DALTON 2015.0
   ----------------------------------------------------------------------------
    NOTE:
     
    Dalton is an experimental code for the evaluation of molecular
    properties using (MC)SCF, DFT, CI, and CC wave functions.
    The authors accept no responsibility for the performance of
    the code or for the correctness of the results.
     
    The code (in whole or part) is provided under a licence and
    is not to be reproduced for further distribution without
    the written permission of the authors or their representatives.
     
    See the home page "http://daltonprogram.org" for further information.
     
    If results obtained with this code are published,
    the appropriate citations would be both of:
     
       K. Aidas, C. Angeli, K. L. Bak, V. Bakken, R. Bast,
       L. Boman, O. Christiansen, R. Cimiraglia, S. Coriani,
       J. Cukras, P. Dahle, E. K. Dalskov, U. Ekstroem,
       T. Enevoldsen, J. J. Eriksen, P. Ettenhuber, B. Fernandez,
       L. Ferrighi, H. Fliegl, L. Frediani, K. Hald, A. Halkier,
       C. Haettig, H. Heiberg, T. Helgaker, A. C. Hennum,
       H. Hettema, E. Hjertenaes, S. Hoest, I.-M. Hoeyvik,
       M. F. Iozzi, B. Jansik, H. J. Aa. Jensen, D. Jonsson,
       P. Joergensen, M. Kaminski, J. Kauczor, S. Kirpekar,
       T. Kjaergaard, W. Klopper, S. Knecht, R. Kobayashi, H. Koch,
       J. Kongsted, A. Krapp, K. Kristensen, A. Ligabue,
       O. B. Lutnaes, J. I. Melo, K. V. Mikkelsen, R. H. Myhre,
       C. Neiss, C. B. Nielsen, P. Norman, J. Olsen,
       J. M. H. Olsen, A. Osted, M. J. Packer, F. Pawlowski,
       T. B. Pedersen, P. F. Provasi, S. Reine, Z. Rinkevicius,
       T. A. Ruden, K. Ruud, V. Rybkin, P. Salek, C. C. M. Samson,
       A. Sanchez de Meras, T. Saue, S. P. A. Sauer,
       B. Schimmelpfennig, K. Sneskov, A. H. Steindal,
       K. O. Sylvester-Hvid, P. R. Taylor, A. M. Teale,
       E. I. Tellgren, D. P. Tew, A. J. Thorvaldsen, L. Thoegersen,
       O. Vahtras, M. A. Watson, D. J. D. Wilson, M. Ziolkowski
       and H. Agren,
       "The Dalton quantum chemistry program system",
       WIREs Comput. Mol. Sci. 2013. (doi: 10.1002/wcms.1172)
    
    and
    
       Dalton, a Molecular Electronic Structure Program,
       Release DALTON2014.0 (2015), see http://daltonprogram.org
   ----------------------------------------------------------------------------

    Authors in alphabetical order (major contribution(s) in parenthesis):

  Kestutis Aidas,           Vilnius University,           Lithuania   (QM/MM)
  Celestino Angeli,         University of Ferrara,        Italy       (NEVPT2)
  Keld L. Bak,              UNI-C,                        Denmark     (AOSOPPA, non-adiabatic coupling, magnetic properties)
  Vebjoern Bakken,          University of Oslo,           Norway      (DALTON; geometry optimizer, symmetry detection)
  Radovan Bast,             KTH Stockholm,                Sweden      (DALTON installation and execution frameworks)
  Pablo Baudin,             University of Valencia,       Spain       (Cholesky excitation energies)
  Linus Boman,              NTNU,                         Norway      (Cholesky decomposition and subsystems)
  Ove Christiansen,         Aarhus University,            Denmark     (CC module)
  Renzo Cimiraglia,         University of Ferrara,        Italy       (NEVPT2)
  Sonia Coriani,            University of Trieste,        Italy       (CC module, MCD in RESPONS)
  Janusz Cukras,            University of Trieste,        Italy       (MChD in RESPONS)
  Paal Dahle,               University of Oslo,           Norway      (Parallelization)
  Erik K. Dalskov,          UNI-C,                        Denmark     (SOPPA)
  Thomas Enevoldsen,        Univ. of Southern Denmark,    Denmark     (SOPPA)
  Janus J. Eriksen,         Aarhus University,            Denmark     (Polarizable embedding model, TDA)
  Berta Fernandez,          U. of Santiago de Compostela, Spain       (doublet spin, ESR in RESPONS)
  Lara Ferrighi,            Aarhus University,            Denmark     (PCM Cubic response)
  Heike Fliegl,             University of Oslo,           Norway      (CCSD(R12))
  Luca Frediani,            UiT The Arctic U. of Norway,  Norway      (PCM)
  Bin Gao,                  UiT The Arctic U. of Norway,  Norway      (Gen1Int library)
  Christof Haettig,         Ruhr-University Bochum,       Germany     (CC module)
  Kasper Hald,              Aarhus University,            Denmark     (CC module)
  Asger Halkier,            Aarhus University,            Denmark     (CC module)
  Erik D. Hedegaard,        Univ. of Southern Denmark,    Denmark     (Polarizable embedding model, QM/MM)
  Hanne Heiberg,            University of Oslo,           Norway      (geometry analysis, selected one-electron integrals)
  Trygve Helgaker,          University of Oslo,           Norway      (DALTON; ABACUS, ERI, DFT modules, London, and much more)
  Alf Christian Hennum,     University of Oslo,           Norway      (Parity violation)
  Hinne Hettema,            University of Auckland,       New Zealand (quadratic response in RESPONS; SIRIUS supersymmetry)
  Eirik Hjertenaes,         NTNU,                         Norway      (Cholesky decomposition)
  Maria Francesca Iozzi,    University of Oslo,           Norway      (RPA)
  Brano Jansik              Technical Univ. of Ostrava    Czech Rep.  (DFT cubic response)
  Hans Joergen Aa. Jensen,  Univ. of Southern Denmark,    Denmark     (DALTON; SIRIUS, RESPONS, ABACUS modules, London, and much more)
  Dan Jonsson,              UiT The Arctic U. of Norway,  Norway      (cubic response in RESPONS module)
  Poul Joergensen,          Aarhus University,            Denmark     (RESPONS, ABACUS, and CC modules)
  Maciej Kaminski,          University of Warsaw,         Poland      (CPPh in RESPONS)
  Joanna Kauczor,           Linkoeping University,        Sweden      (Complex polarization propagator (CPP) module)
  Sheela Kirpekar,          Univ. of Southern Denmark,    Denmark     (Mass-velocity & Darwin integrals)
  Wim Klopper,              KIT Karlsruhe,                Germany     (R12 code in CC, SIRIUS, and ABACUS modules)
  Stefan Knecht,            ETH Zurich,                   Switzerland (Parallel CI and MCSCF)
  Rika Kobayashi,           Australian National Univ.,    Australia   (DIIS in CC, London in MCSCF)
  Henrik Koch,              NTNU,                         Norway      (CC module, Cholesky decomposition)
  Jacob Kongsted,           Univ. of Southern Denmark,    Denmark     (Polarizable embedding model, QM/MM)
  Andrea Ligabue,           University of Modena,         Italy       (CTOCD, AOSOPPA)
  Nanna H. List             Univ. of Southern Denmark,    Denmark     (Polarizable embedding model)
  Ola B. Lutnaes,           University of Oslo,           Norway      (DFT Hessian)
  Juan I. Melo,             University of Buenos Aires,   Argentina   (LRESC, Relativistic Effects on NMR Shieldings)
  Kurt V. Mikkelsen,        University of Copenhagen,     Denmark     (MC-SCRF and QM/MM)
  Rolf H. Myhre,            NTNU,                         Norway      (Cholesky, subsystems and ECC2)
  Christian Neiss,          Univ. Erlangen-Nuernberg,     Germany     (CCSD(R12))
  Christian B. Nielsen,     University of Copenhagen,     Denmark     (QM/MM)
  Patrick Norman,           Linkoeping University,        Sweden      (Cubic response and complex response in RESPONS)
  Jeppe Olsen,              Aarhus University,            Denmark     (SIRIUS CI/density modules)
  Jogvan Magnus H. Olsen,   Univ. of Southern Denmark,    Denmark     (Polarizable embedding model, QM/MM)
  Anders Osted,             Copenhagen University,        Denmark     (QM/MM)
  Martin J. Packer,         University of Sheffield,      UK          (SOPPA)
  Filip Pawlowski,          Kazimierz Wielki University,  Poland      (CC3)
  Morten N. Pedersen,       Univ. of Southern Denmark,    Denmark     (Polarizable embedding model)
  Thomas B. Pedersen,       University of Oslo,           Norway      (Cholesky decomposition)
  Patricio F. Provasi,      University of Northeastern,   Argentina   (Analysis of coupling constants in localized orbitals)
  Zilvinas Rinkevicius,     KTH Stockholm,                Sweden      (open-shell DFT, ESR)
  Elias Rudberg,            KTH Stockholm,                Sweden      (DFT grid and basis info)
  Torgeir A. Ruden,         University of Oslo,           Norway      (Numerical derivatives in ABACUS)
  Kenneth Ruud,             UiT The Arctic U. of Norway,  Norway      (DALTON; ABACUS magnetic properties and much more)
  Pawel Salek,              KTH Stockholm,                Sweden      (DALTON; DFT code)
  Claire C. M. Samson       University of Karlsruhe       Germany     (Boys localization, r12 integrals in ERI)
  Alfredo Sanchez de Meras, University of Valencia,       Spain       (CC module, Cholesky decomposition)
  Trond Saue,               Paul Sabatier University,     France      (direct Fock matrix construction)
  Stephan P. A. Sauer,      University of Copenhagen,     Denmark     (SOPPA(CCSD), SOPPA prop., AOSOPPA, vibrational g-factors)
  Bernd Schimmelpfennig,    Forschungszentrum Karlsruhe,  Germany     (AMFI module)
  Kristian Sneskov,         Aarhus University,            Denmark     (Polarizable embedding model, QM/MM)
  Arnfinn H. Steindal,      UiT The Arctic U. of Norway,  Norway      (parallel QM/MM, Polarizable embedding model)
  Casper Steinmann,         Univ. of Southern Denmark,    Denmark     (QFIT, Polarizable embedding model)
  K. O. Sylvester-Hvid,     University of Copenhagen,     Denmark     (MC-SCRF)
  Peter R. Taylor,          VLSCI/Univ. of Melbourne,     Australia   (Symmetry handling ABACUS, integral transformation)
  Andrew M. Teale,          University of Nottingham,     England     (DFT-AC, DFT-D)
  David P. Tew,             University of Bristol,        England     (CCSD(R12))
  Olav Vahtras,             KTH Stockholm,                Sweden      (triplet response, spin-orbit, ESR, TDDFT, open-shell DFT)
  David J. Wilson,          La Trobe University,          Australia   (DFT Hessian and DFT magnetizabilities)
  Hans Agren,               KTH Stockholm,                Sweden      (SIRIUS module, RESPONS, MC-SCRF solvation model)
 --------------------------------------------------------------------------------

     Date and time (Linux)  : Wed Jul 27 00:36:07 2016
     Host name              : copper                                  

 * Work memory size             :    64000000 =  488.28 megabytes.

 * Directories for basis set searches:
   1) /home/eric/development/cclib_berquist/data/DALTON/basicDALTON-2015
   2) /home/eric/opt/apps/dalton/2015-i2013.sp1.1-mkl-omp/dalton/basis


Compilation information
-----------------------

 Who compiled             | eric
 Host                     | copper
 System                   | Linux-3.13.0-46-generic
 CMake generator          | Unix Makefiles
 Processor                | x86_64
 64-bit integers          | OFF
 MPI                      | OFF
 Fortran compiler         | /home/eric/opt/apps/intel/2013_sp1_update1/compose
                          | r_xe_2013_sp1.1.106/bin/intel64/ifort
 Fortran compiler version | ifort (IFORT) 14.0.1 20131008
 C compiler               | /home/eric/opt/apps/intel/2013_sp1_update1/compose
                          | r_xe_2013_sp1.1.106/bin/intel64/icc
 C compiler version       | icc (ICC) 14.0.1 20131008
 C++ compiler             | /home/eric/opt/apps/intel/2013_sp1_update1/compose
                          | r_xe_2013_sp1.1.106/bin/intel64/icpc
 C++ compiler version     | icpc (ICC) 14.0.1 20131008
 Static linking           | OFF
 Last Git revision        | d34efb170c481236ad60c789dea90a4c857c6bab
 Configuration time       | 2015-03-16 13:50:41.378554


   Content of the .dal input file
 ----------------------------------

BASIS                                             
STO-3G                                            
tryptophan static polarizability                  
---                                               
Atomtypes=18 Angstrom Charge=0 Nosymmetry         
Charge=7.0 Atoms=1                                
N     -0.0699826875    0.3321987191    0.282128317
Charge=6.0 Atoms=2                                
C      1.3728035449    0.0970713322   -0.012958773
C      2.0969275417   -0.0523593054    1.368265222
Charge=8.0 Atoms=1                                
O      3.1382490088   -0.6563684788    1.538016292
Charge=6.0 Atoms=1                                
C      1.9529664597    1.3136139853   -0.795602196
Charge=1.0 Atoms=2                                
H      1.8442727348    2.2050605044   -0.180163178
H      1.3455899915    1.4594935008   -1.688568952
Charge=6.0 Atoms=2                                
C      3.4053646872    1.1270611844   -1.191807523
C      4.4845249667    1.6235038050   -0.559891800
Charge=7.0 Atoms=1                                
N      5.6509089647    1.2379326369   -1.228461065
Charge=1.0 Atoms=1                                
H      6.6009314349    1.4112351003   -0.902862939
Charge=6.0 Atoms=3                                
C      5.2921619642    0.4356274269   -2.313161700
C      3.8942019475    0.3557998019   -2.326331579
C      3.2659168792   -0.3832607567   -3.343130954
Charge=1.0 Atoms=1                                
H      2.1864306677   -0.4577058843   -3.381591867
Charge=6.0 Atoms=1                                
C      4.0381762333   -1.0087512639   -4.287099377
Charge=1.0 Atoms=1                                
H      3.5696890585   -1.5824763141   -5.075560973
Charge=6.0 Atoms=1                                
C      5.4445159165   -0.9194874753   -4.251900288
Charge=1.0 Atoms=1                                
H      6.0229926396   -1.4277973542   -5.013000706
Charge=6.0 Atoms=1                                
C      6.0869576238   -0.2024044961   -3.276770272
Charge=1.0 Atoms=5                                
H      7.1656650647   -0.1287762497   -3.245865064
H      4.5457621618    2.2425310766    0.325397965
H     -0.5159777859    0.7478905868   -0.548766100
H      1.5420526570   -0.8143939718   -0.593546319
H     -0.5302278747   -0.5823989653    0.408450763
Charge=8.0 Atoms=1                                
O      1.4575846656    0.5996887308    2.409350028
Charge=1.0 Atoms=1                                
H      0.5990015339    0.8842421241    2.004783045
                                                  
**DALTON INPUT                                    
.RUN ALL                                          
.DIRECT                                           
**WAVE FUNCTIONS                                  
.HF                                               
**PROPERTIES                                      
.ALPHA                                            
*ABALNR                                           
.FREQUE                                           
1                                                 
0.0                                               
**END OF DALTON INPUT                             


       *******************************************************************
       *********** Output from DALTON general input processing ***********
       *******************************************************************

 --------------------------------------------------------------------------------
   Overall default print level:    0
   Print level for DALTON.STAT:    1

    AO-direct calculation (in sections where implemented)
    HERMIT 1- and 2-electron integral sections will be executed
    "Old" integral transformation used (limited to max 255 basis functions)
    Wave function sections will be executed (SIRIUS module)
    Dynamic molecular response properties section will be executed (RESPONSE module)
    Static molecular property section will be executed (ABACUS module)
 --------------------------------------------------------------------------------


   ****************************************************************************
   *************** Output of molecule and basis set information ***************
   ****************************************************************************


    The two title cards from your ".mol" input:
    ------------------------------------------------------------------------
 1: tryptophan static polarizability                                        
 2: ---                                                                     
    ------------------------------------------------------------------------

  Coordinates are entered in Angstrom and converted to atomic units.
          - Conversion factor : 1 bohr = 0.52917721 A

  Atomic type no.    1
  --------------------
  Nuclear charge:   7.00000
  Number of symmetry independent centers:    1
  Number of basis sets to read;    2
  Basis set file used for this atomic type with Z =   7 :
     "/home/eric/opt/apps/dalton/2015-i2013.sp1.1-mkl-omp/dalton/basis/STO-3G"

  Atomic type no.    2
  --------------------
  Nuclear charge:   6.00000
  Number of symmetry independent centers:    2
  Number of basis sets to read;    2
  Basis set file used for this atomic type with Z =   6 :
     "/home/eric/opt/apps/dalton/2015-i2013.sp1.1-mkl-omp/dalton/basis/STO-3G"

  Atomic type no.    3
  --------------------
  Nuclear charge:   8.00000
  Number of symmetry independent centers:    1
  Number of basis sets to read;    2
  Basis set file used for this atomic type with Z =   8 :
     "/home/eric/opt/apps/dalton/2015-i2013.sp1.1-mkl-omp/dalton/basis/STO-3G"

  Atomic type no.    4
  --------------------
  Nuclear charge:   6.00000
  Number of symmetry independent centers:    1
  Number of basis sets to read;    2
  Basis set file used for this atomic type with Z =   6 :
     "/home/eric/opt/apps/dalton/2015-i2013.sp1.1-mkl-omp/dalton/basis/STO-3G"

  Atomic type no.    5
  --------------------
  Nuclear charge:   1.00000
  Number of symmetry independent centers:    2
  Number of basis sets to read;    2
  Basis set file used for this atomic type with Z =   1 :
     "/home/eric/opt/apps/dalton/2015-i2013.sp1.1-mkl-omp/dalton/basis/STO-3G"

  Atomic type no.    6
  --------------------
  Nuclear charge:   6.00000
  Number of symmetry independent centers:    2
  Number of basis sets to read;    2
  Basis set file used for this atomic type with Z =   6 :
     "/home/eric/opt/apps/dalton/2015-i2013.sp1.1-mkl-omp/dalton/basis/STO-3G"

  Atomic type no.    7
  --------------------
  Nuclear charge:   7.00000
  Number of symmetry independent centers:    1
  Number of basis sets to read;    2
  Basis set file used for this atomic type with Z =   7 :
     "/home/eric/opt/apps/dalton/2015-i2013.sp1.1-mkl-omp/dalton/basis/STO-3G"

  Atomic type no.    8
  --------------------
  Nuclear charge:   1.00000
  Number of symmetry independent centers:    1
  Number of basis sets to read;    2
  Basis set file used for this atomic type with Z =   1 :
     "/home/eric/opt/apps/dalton/2015-i2013.sp1.1-mkl-omp/dalton/basis/STO-3G"

  Atomic type no.    9
  --------------------
  Nuclear charge:   6.00000
  Number of symmetry independent centers:    3
  Number of basis sets to read;    2
  Basis set file used for this atomic type with Z =   6 :
     "/home/eric/opt/apps/dalton/2015-i2013.sp1.1-mkl-omp/dalton/basis/STO-3G"

  Atomic type no.   10
  --------------------
  Nuclear charge:   1.00000
  Number of symmetry independent centers:    1
  Number of basis sets to read;    2
  Basis set file used for this atomic type with Z =   1 :
     "/home/eric/opt/apps/dalton/2015-i2013.sp1.1-mkl-omp/dalton/basis/STO-3G"

  Atomic type no.   11
  --------------------
  Nuclear charge:   6.00000
  Number of symmetry independent centers:    1
  Number of basis sets to read;    2
  Basis set file used for this atomic type with Z =   6 :
     "/home/eric/opt/apps/dalton/2015-i2013.sp1.1-mkl-omp/dalton/basis/STO-3G"

  Atomic type no.   12
  --------------------
  Nuclear charge:   1.00000
  Number of symmetry independent centers:    1
  Number of basis sets to read;    2
  Basis set file used for this atomic type with Z =   1 :
     "/home/eric/opt/apps/dalton/2015-i2013.sp1.1-mkl-omp/dalton/basis/STO-3G"

  Atomic type no.   13
  --------------------
  Nuclear charge:   6.00000
  Number of symmetry independent centers:    1
  Number of basis sets to read;    2
  Basis set file used for this atomic type with Z =   6 :
     "/home/eric/opt/apps/dalton/2015-i2013.sp1.1-mkl-omp/dalton/basis/STO-3G"

  Atomic type no.   14
  --------------------
  Nuclear charge:   1.00000
  Number of symmetry independent centers:    1
  Number of basis sets to read;    2
  Basis set file used for this atomic type with Z =   1 :
     "/home/eric/opt/apps/dalton/2015-i2013.sp1.1-mkl-omp/dalton/basis/STO-3G"

  Atomic type no.   15
  --------------------
  Nuclear charge:   6.00000
  Number of symmetry independent centers:    1
  Number of basis sets to read;    2
  Basis set file used for this atomic type with Z =   6 :
     "/home/eric/opt/apps/dalton/2015-i2013.sp1.1-mkl-omp/dalton/basis/STO-3G"

  Atomic type no.   16
  --------------------
  Nuclear charge:   1.00000
  Number of symmetry independent centers:    5
  Number of basis sets to read;    2
  Basis set file used for this atomic type with Z =   1 :
     "/home/eric/opt/apps/dalton/2015-i2013.sp1.1-mkl-omp/dalton/basis/STO-3G"

  Atomic type no.   17
  --------------------
  Nuclear charge:   8.00000
  Number of symmetry independent centers:    1
  Number of basis sets to read;    2
  Basis set file used for this atomic type with Z =   8 :
     "/home/eric/opt/apps/dalton/2015-i2013.sp1.1-mkl-omp/dalton/basis/STO-3G"

  Atomic type no.   18
  --------------------
  Nuclear charge:   1.00000
  Number of symmetry independent centers:    1
  Number of basis sets to read;    2
  Basis set file used for this atomic type with Z =   1 :
     "/home/eric/opt/apps/dalton/2015-i2013.sp1.1-mkl-omp/dalton/basis/STO-3G"


                         SYMGRP: Point group information
                         -------------------------------

@    Point group: C1 


                                 Isotopic Masses
                                 ---------------

                           N          14.003074
                           C          12.000000
                           C          12.000000
                           O          15.994915
                           C          12.000000
                           H           1.007825
                           H           1.007825
                           C          12.000000
                           C          12.000000
                           N          14.003074
                           H           1.007825
                           C          12.000000
                           C          12.000000
                           C          12.000000
                           H           1.007825
                           C          12.000000
                           H           1.007825
                           C          12.000000
                           H           1.007825
                           C          12.000000
                           H           1.007825
                           H           1.007825
                           H           1.007825
                           H           1.007825
                           H           1.007825
                           O          15.994915
                           H           1.007825

                       Total mass:   204.089878 amu
                       Natural abundance:  87.311 %

 Center-of-mass coordinates (a.u.):    6.317790    0.497269   -2.037318


  Atoms and basis sets
  --------------------

  Number of atom types :   18
  Total number of atoms:   27

  Basis set used is "STO-3G" from the basis set library.

  label    atoms   charge   prim   cont     basis
  ----------------------------------------------------------------------
  N           1    7.0000    15     5      [6s3p|2s1p]                                        
  C           2    6.0000    15     5      [6s3p|2s1p]                                        
  O           1    8.0000    15     5      [6s3p|2s1p]                                        
  C           1    6.0000    15     5      [6s3p|2s1p]                                        
  H           2    1.0000     3     1      [3s|1s]                                            
  C           2    6.0000    15     5      [6s3p|2s1p]                                        
  N           1    7.0000    15     5      [6s3p|2s1p]                                        
  H           1    1.0000     3     1      [3s|1s]                                            
  C           3    6.0000    15     5      [6s3p|2s1p]                                        
  H           1    1.0000     3     1      [3s|1s]                                            
  C           1    6.0000    15     5      [6s3p|2s1p]                                        
  H           1    1.0000     3     1      [3s|1s]                                            
  C           1    6.0000    15     5      [6s3p|2s1p]                                        
  H           1    1.0000     3     1      [3s|1s]                                            
  C           1    6.0000    15     5      [6s3p|2s1p]                                        
  H           5    1.0000     3     1      [3s|1s]                                            
  O           1    8.0000    15     5      [6s3p|2s1p]                                        
  H           1    1.0000     3     1      [3s|1s]                                            
  ----------------------------------------------------------------------
  total:     27  108.0000   261    87
  ----------------------------------------------------------------------

  Threshold for neglecting AO integrals:  1.00D-12

  Max    interatomic separation is    9.1659 Angstrom (   17.3211 Bohr)
  between atoms   27 and   19, "H     " and "H     ".

  Min HX interatomic separation is    0.9909 Angstrom (    1.8725 Bohr)

  Min YX interatomic separation is    1.2157 Angstrom (    2.2974 Bohr)


  Bond distances (Angstrom):
  --------------------------

                  atom 1     atom 2       distance
                  ------     ------       --------
  bond distance:  C          N            1.491306
  bond distance:  C          C            1.566673
  bond distance:  O          C            1.215727
  bond distance:  C          C            1.558556
  bond distance:  H          C            1.088695
  bond distance:  H          C            1.089760
  bond distance:  C          C            1.516984
  bond distance:  C          C            1.345496
  bond distance:  N          C            1.398607
  bond distance:  H          N            1.019113
  bond distance:  C          N            1.396055
  bond distance:  C          C            1.456348
  bond distance:  C          C            1.400299
  bond distance:  C          C            1.405288
  bond distance:  H          C            1.082733
  bond distance:  C          C            1.370657
  bond distance:  H          C            1.081810
  bond distance:  C          C            1.409609
  bond distance:  H          C            1.082723
  bond distance:  C          C            1.402614
  bond distance:  C          C            1.370335
  bond distance:  H          C            1.081659
  bond distance:  H          C            1.081981
  bond distance:  H          N            1.030581
  bond distance:  H          C            1.093845
  bond distance:  H          N            1.031636
  bond distance:  O          C            1.384841
  bond distance:  H          O            0.990863


  Bond angles (degrees):
  ----------------------

                  atom 1     atom 2     atom 3         angle
                  ------     ------     ------         -----
  bond angle:     C          N          H            108.829
  bond angle:     C          N          H            108.425
  bond angle:     H          N          H            105.263
  bond angle:     N          C          C            106.724
  bond angle:     N          C          C            109.659
  bond angle:     N          C          H            112.712
  bond angle:     C          C          C            110.189
  bond angle:     C          C          H            108.479
  bond angle:     C          C          H            109.043
  bond angle:     C          C          O            124.499
  bond angle:     C          C          O            113.859
  bond angle:     O          C          O            121.628
  bond angle:     C          C          H            108.548
  bond angle:     C          C          H            107.969
  bond angle:     C          C          C            113.052
  bond angle:     H          C          H            107.335
  bond angle:     H          C          C            110.116
  bond angle:     H          C          C            109.637
  bond angle:     C          C          C            126.860
  bond angle:     C          C          C            126.154
  bond angle:     C          C          C            106.981
  bond angle:     C          C          N            110.039
  bond angle:     C          C          H            129.849
  bond angle:     N          C          H            120.109
  bond angle:     C          N          H            125.297
  bond angle:     C          N          C            108.394
  bond angle:     H          N          C            125.839
  bond angle:     N          C          C            107.254
  bond angle:     N          C          C            130.511
  bond angle:     C          C          C            122.230
  bond angle:     C          C          C            107.312
  bond angle:     C          C          C            133.797
  bond angle:     C          C          C            118.890
  bond angle:     C          C          H            120.505
  bond angle:     C          C          C            119.105
  bond angle:     H          C          C            120.391
  bond angle:     C          C          H            119.998
  bond angle:     C          C          C            121.066
  bond angle:     H          C          C            118.936
  bond angle:     C          C          H            119.062
  bond angle:     C          C          C            121.241
  bond angle:     H          C          C            119.697
  bond angle:     C          C          C            117.468
  bond angle:     C          C          H            120.965
  bond angle:     C          C          H            121.567
  bond angle:     C          O          H            103.198




 Principal moments of inertia (u*A**2) and principal axes
 --------------------------------------------------------

   IA     408.875429         -0.626320    0.092893    0.774012
   IB    1397.895050          0.754463    0.322162    0.571837
   IC    1588.907843         -0.196238    0.942116   -0.271861


 Rotational constants
 --------------------

               A                   B                   C

           1236.0220            361.5286            318.0669 MHz
            0.041229            0.012059            0.010610 cm-1


@  Nuclear repulsion energy :  957.106334596642 Hartree


                     .---------------------------------------.
                     | Starting in Integral Section (HERMIT) |
                     `---------------------------------------'



 ***************************************************************************************
 ****************** Output from **INTEGRALS input processing (HERMIT) ******************
 ***************************************************************************************


 - Using defaults, no **INTEGRALS input found

 Default print level:        1

 * Nuclear model: Point charge

 Calculation of one-electron Hamiltonian integrals.

 Center of mass  (bohr):      6.317789803281      0.497269061322     -2.037317863994
 Operator center (bohr):      0.000000000000      0.000000000000      0.000000000000
 Gauge origin    (bohr):      0.000000000000      0.000000000000      0.000000000000
 Dipole origin   (bohr):      0.000000000000      0.000000000000      0.000000000000


     ************************************************************************
     ************************** Output from HERINT **************************
     ************************************************************************

 >>>  Time used in GABGEN     is   0.26 seconds
 >>>> Total CPU  time used in HERMIT:   0.64 seconds
 >>>> Total wall time used in HERMIT:   0.41 seconds


                        .----------------------------------.
                        | End of Integral Section (HERMIT) |
                        `----------------------------------'



                   .--------------------------------------------.
                   | Starting in Wave Function Section (SIRIUS) |
                   `--------------------------------------------'


 *** Output from Huckel module :

     Using EWMO model:          T
     Using EHT  model:          F
     Number of Huckel orbitals each symmetry:   87

 EWMO - Energy Weighted Maximum Overlap - is a Huckel type method,
        which normally is better than Extended Huckel Theory.
 Reference: Linderberg and Ohrn, Propagators in Quantum Chemistry (Wiley, 1973)

 Huckel EWMO eigenvalues for symmetry :  1
          -20.685464     -20.684080     -15.675349     -15.673556     -11.367387
          -11.361751     -11.356023     -11.354765     -11.352187     -11.351113
          -11.348160     -11.347490     -11.347233     -11.345515     -11.344117
           -2.106346      -2.007040      -1.799303      -1.695644      -1.590688
           -1.470683      -1.378015      -1.297374      -1.161498      -1.098207
           -0.991472      -0.983925      -0.909521      -0.875585      -0.833934
           -0.820492      -0.782925      -0.753277      -0.675306      -0.664546
           -0.644957      -0.633935      -0.625258      -0.608981      -0.590007
           -0.574798      -0.565483      -0.547174      -0.524017      -0.493809
           -0.482318      -0.468733      -0.445280      -0.439213      -0.421477
           -0.412175      -0.400810      -0.382043      -0.378608      -0.274442
           -0.253179      -0.235930      -0.223945      -0.213160      -0.187856
           -0.182380      -0.174318      -0.170341      -0.159270      -0.152945
           -0.151302      -0.142390      -0.140434      -0.134443      -0.131038
           -0.130430      -0.126554      -0.125636      -0.121911      -0.120345
           -0.117138      -0.114233      -0.112706      -0.109218      -0.105596
           -0.099086      -0.096905      -0.093359      -0.092295      -0.083388
           -0.076438      -0.073742

 **********************************************************************
 *SIRIUS* a direct, restricted step, second order MCSCF program       *
 **********************************************************************

 
     Date and time (Linux)  : Wed Jul 27 00:36:08 2016
     Host name              : copper                                  

 Title lines from ".mol" input file:
     tryptophan static polarizability                                        
     ---                                                                     

 Print level on unit LUPRI =   2 is   0
 Print level on unit LUW4  =   2 is   5

@    Restricted, closed shell Hartree-Fock calculation.

@    Time-dependent Hartree-Fock calculation (random phase approximation).
 Fock matrices are calculated directly without use of integrals on disk.

 Initial molecular orbitals are obtained according to
 ".MOSTART EWMO  " input option

     Wave function specification
     ============================
@    Wave function type        >>> HF <<<
@    Number of closed shell electrons         108
@    Number of electrons in active shells       0
@    Total charge of the molecule               0

@    Spin multiplicity and 2 M_S                1         0
@    Total number of symmetries                 1 (point group: C1 )
@    Reference state symmetry                   1 (irrep name : A  )

     Orbital specifications
     ======================
@    Abelian symmetry species          All |    1
@                                          |  A  
                                       --- |  ---
@    Occupied SCF orbitals              54 |   54
@    Secondary orbitals                 33 |   33
@    Total number of orbitals           87 |   87
@    Number of basis functions          87 |   87

     Optimization information
     ========================
@    Number of configurations                 1
@    Number of orbital rotations           1782
     ------------------------------------------
@    Total number of variables             1783

     Maximum number of Fock   iterations      0
     Maximum number of DIIS   iterations     60
     Maximum number of QC-SCF iterations     60
     Threshold for SCF convergence     1.00D-05


 ***********************************************
 ***** DIIS acceleration of SCF iterations *****
 ***********************************************

 C1-DIIS algorithm; max error vectors =    8

 Iter      Total energy        Error norm    Delta(E)  DIIS dim.
 -----------------------------------------------------------------------------
   1  Screening settings (-IFTHRS, JTDIIS, DIFDEN, times)   -7    1    T  6.09D+00  4.57D+00
@  1    -672.780566140        3.01293D+00   -6.73D+02    1
      Virial theorem: -V/T =      2.006815
@      MULPOP N      -0.38; C       0.55; C       1.16; O      -1.02; C       0.35; H      -0.14; H      -0.12; C       0.04; C       0.26; N      -0.36; 
@             H       0.05; C       0.33; C       0.03; C       0.11; H      -0.15; C       0.09; H      -0.15; C       0.13; H      -0.16; C       0.08; 
@             H      -0.15; H      -0.15; H       0.09; H      -0.14; H       0.08; O      -0.67; H       0.24; 
 -----------------------------------------------------------------------------
   2  Screening settings (-IFTHRS, JTDIIS, DIFDEN, times)   -7    2    T  5.89D+00  4.27D+00
@  2    -673.414231908        1.59072D+00   -6.34D-01    2
      Virial theorem: -V/T =      2.009717
@      MULPOP N      -0.38; C      -0.22; C      -0.27; O       0.33; C      -0.22; H       0.11; H       0.11; C      -0.10; C       0.11; N      -0.19; 
@             H       0.20; C       0.05; C      -0.07; C      -0.06; H       0.05; C      -0.04; H       0.05; C      -0.04; H       0.06; C      -0.06; 
@             H       0.07; H       0.08; H       0.17; H       0.14; H       0.17; O      -0.20; H       0.18; 
 -----------------------------------------------------------------------------
   3  Screening settings (-IFTHRS, JTDIIS, DIFDEN, times)   -7    3    T  6.50D+00  4.02D+00
@  3    -673.576192936        3.75512D-01   -1.62D-01    3
      Virial theorem: -V/T =      2.009133
@      MULPOP N      -0.41; C       0.04; C       0.44; O      -0.41; C      -0.12; H       0.07; H       0.06; C      -0.01; C       0.02; N      -0.34; 
@             H       0.22; C       0.10; C      -0.01; C      -0.05; H       0.05; C      -0.08; H       0.06; C      -0.06; H       0.06; C      -0.09; 
@             H       0.06; H       0.08; H       0.15; H       0.05; H       0.15; O      -0.28; H       0.22; 
 -----------------------------------------------------------------------------
   4  Screening settings (-IFTHRS, JTDIIS, DIFDEN, times)  -11    4    F  8.22D+00  5.93D+00
@  4    -673.589195172        9.50641D-02   -1.30D-02    4
      Virial theorem: -V/T =      2.009211
@      MULPOP N      -0.41; C       0.03; C       0.30; O      -0.25; C      -0.10; H       0.06; H       0.06; C      -0.04; C       0.05; N      -0.33; 
@             H       0.22; C       0.12; C      -0.02; C      -0.07; H       0.06; C      -0.08; H       0.06; C      -0.06; H       0.06; C      -0.08; 
@             H       0.06; H       0.08; H       0.16; H       0.06; H       0.16; O      -0.34; H       0.24; 
 -----------------------------------------------------------------------------
   5  Screening settings (-IFTHRS, JTDIIS, DIFDEN, times)  -11    5    T  8.08D+00  5.36D+00
@  5    -673.590340033        2.84247D-02   -1.14D-03    5
      Virial theorem: -V/T =      2.009200
@      MULPOP N      -0.41; C       0.02; C       0.30; O      -0.26; C      -0.11; H       0.07; H       0.06; C      -0.04; C       0.04; N      -0.32; 
@             H       0.22; C       0.10; C      -0.02; C      -0.06; H       0.05; C      -0.07; H       0.06; C      -0.06; H       0.06; C      -0.08; 
@             H       0.06; H       0.08; H       0.16; H       0.07; H       0.16; O      -0.31; H       0.23; 
 -----------------------------------------------------------------------------
   6  Screening settings (-IFTHRS, JTDIIS, DIFDEN, times)  -11    6    T  6.65D+00  5.14D+00
@  6    -673.590543934        1.09080D-02   -2.04D-04    6
      Virial theorem: -V/T =      2.009187
@      MULPOP N      -0.41; C       0.02; C       0.30; O      -0.26; C      -0.11; H       0.07; H       0.06; C      -0.04; C       0.04; N      -0.32; 
@             H       0.22; C       0.11; C      -0.02; C      -0.07; H       0.06; C      -0.08; H       0.06; C      -0.06; H       0.06; C      -0.08; 
@             H       0.06; H       0.08; H       0.16; H       0.07; H       0.16; O      -0.31; H       0.23; 
 -----------------------------------------------------------------------------
   7  Screening settings (-IFTHRS, JTDIIS, DIFDEN, times)  -11    7    T  7.42D+00  5.55D+00
@  7    -673.590567694        4.12396D-03   -2.38D-05    7
      Virial theorem: -V/T =      2.009190
@      MULPOP N      -0.41; C       0.02; C       0.30; O      -0.26; C      -0.11; H       0.07; H       0.06; C      -0.04; C       0.04; N      -0.32; 
@             H       0.22; C       0.11; C      -0.02; C      -0.06; H       0.06; C      -0.07; H       0.06; C      -0.06; H       0.06; C      -0.08; 
@             H       0.06; H       0.08; H       0.16; H       0.07; H       0.16; O      -0.31; H       0.23; 
 -----------------------------------------------------------------------------
   8  Screening settings (-IFTHRS, JTDIIS, DIFDEN, times)  -11    8    T  7.06D+00  4.85D+00
@  8    -673.590570617        1.50246D-03   -2.92D-06    8
      Virial theorem: -V/T =      2.009191
@      MULPOP N      -0.41; C       0.02; C       0.30; O      -0.26; C      -0.11; H       0.07; H       0.06; C      -0.04; C       0.04; N      -0.32; 
@             H       0.22; C       0.11; C      -0.02; C      -0.06; H       0.06; C      -0.08; H       0.06; C      -0.06; H       0.06; C      -0.08; 
@             H       0.06; H       0.08; H       0.16; H       0.07; H       0.16; O      -0.31; H       0.23; 
 -----------------------------------------------------------------------------
   9  Screening settings (-IFTHRS, JTDIIS, DIFDEN, times)  -11    9    T  6.98D+00  5.17D+00
@  9    -673.590571052        4.42974D-04   -4.36D-07    8
      Virial theorem: -V/T =      2.009191
@      MULPOP N      -0.41; C       0.02; C       0.30; O      -0.26; C      -0.11; H       0.07; H       0.06; C      -0.04; C       0.04; N      -0.32; 
@             H       0.22; C       0.11; C      -0.02; C      -0.06; H       0.06; C      -0.08; H       0.06; C      -0.06; H       0.06; C      -0.08; 
@             H       0.06; H       0.08; H       0.16; H       0.07; H       0.16; O      -0.31; H       0.23; 
 -----------------------------------------------------------------------------
  10  Screening settings (-IFTHRS, JTDIIS, DIFDEN, times)  -11   10    T  6.93D+00  4.93D+00
@ 10    -673.590571102        1.79892D-04   -4.99D-08    8
      Virial theorem: -V/T =      2.009191
@      MULPOP N      -0.41; C       0.02; C       0.30; O      -0.26; C      -0.11; H       0.07; H       0.06; C      -0.04; C       0.04; N      -0.32; 
@             H       0.22; C       0.11; C      -0.02; C      -0.06; H       0.06; C      -0.08; H       0.06; C      -0.06; H       0.06; C      -0.08; 
@             H       0.06; H       0.08; H       0.16; H       0.07; H       0.16; O      -0.31; H       0.23; 
 -----------------------------------------------------------------------------
  11  Screening settings (-IFTHRS, JTDIIS, DIFDEN, times)  -11   11    T  6.65D+00  4.22D+00
@ 11    -673.590571114        9.24447D-05   -1.19D-08    8
      Virial theorem: -V/T =      2.009191
@      MULPOP N      -0.41; C       0.02; C       0.30; O      -0.26; C      -0.11; H       0.07; H       0.06; C      -0.04; C       0.04; N      -0.32; 
@             H       0.22; C       0.11; C      -0.02; C      -0.06; H       0.06; C      -0.08; H       0.06; C      -0.06; H       0.06; C      -0.08; 
@             H       0.06; H       0.08; H       0.16; H       0.07; H       0.16; O      -0.31; H       0.23; 
 -----------------------------------------------------------------------------
  12  Screening settings (-IFTHRS, JTDIIS, DIFDEN, times)  -11   12    T  6.24D+00  4.04D+00
@ 12    -673.590571119        3.62967D-05   -4.54D-09    8
      Virial theorem: -V/T =      2.009191
@      MULPOP N      -0.41; C       0.02; C       0.30; O      -0.26; C      -0.11; H       0.07; H       0.06; C      -0.04; C       0.04; N      -0.32; 
@             H       0.22; C       0.11; C      -0.02; C      -0.06; H       0.06; C      -0.08; H       0.06; C      -0.06; H       0.06; C      -0.08; 
@             H       0.06; H       0.08; H       0.16; H       0.07; H       0.16; O      -0.31; H       0.23; 
 -----------------------------------------------------------------------------
  13  Screening settings (-IFTHRS, JTDIIS, DIFDEN, times)  -11   13    T  5.61D+00  3.73D+00
@ 13    -673.590571120        1.50985D-05   -1.12D-09    8
      Virial theorem: -V/T =      2.009191
@      MULPOP N      -0.41; C       0.02; C       0.30; O      -0.26; C      -0.11; H       0.07; H       0.06; C      -0.04; C       0.04; N      -0.32; 
@             H       0.22; C       0.11; C      -0.02; C      -0.06; H       0.06; C      -0.08; H       0.06; C      -0.06; H       0.06; C      -0.08; 
@             H       0.06; H       0.08; H       0.16; H       0.07; H       0.16; O      -0.31; H       0.23; 
 -----------------------------------------------------------------------------
  14  Screening settings (-IFTHRS, JTDIIS, DIFDEN, times)  -11   14    T  5.93D+00  3.55D+00
@ 14    -673.590571120        6.58199D-06    3.94D-10    8

@ *** DIIS converged in  14 iterations !
@     Converged SCF energy, gradient:   -673.590571119518    6.58D-06
    - total time used in SIRFCK :              0.00 seconds


 *** SCF orbital energy analysis ***

 Only the 20 lowest virtual orbital energies printed in each symmetry.

 Number of electrons :  108
 Orbital occupations :   54

 Sym       Hartree-Fock orbital energies

1 A     -20.26900324   -20.24228198   -15.38972450   -15.34542881   -11.14816923
        -11.09847113   -11.06807387   -11.06515166   -11.06336270   -11.02540362
        -11.02526819   -11.02390606   -11.01604289   -11.01491516   -11.01154927
         -1.34767983    -1.25783896    -1.21998793    -1.15379029    -1.07454723
         -1.02552479    -0.95927351    -0.93677576    -0.91333803    -0.83764136
         -0.78305139    -0.74937452    -0.71059796    -0.69263415    -0.66916338
         -0.64838904    -0.61689237    -0.60232413    -0.59835665    -0.58076315
         -0.55646035    -0.54281431    -0.53686017    -0.52408843    -0.51774209
         -0.49793510    -0.48716027    -0.47877388    -0.45972720    -0.44462540
         -0.43847680    -0.41668841    -0.41391228    -0.36971466    -0.32852496
         -0.32562033    -0.30674487    -0.24258603    -0.22566865     0.24757651
          0.29518621     0.31850992     0.36943951     0.52184933     0.53359721
          0.56098472     0.56857258     0.57836709     0.61257666     0.61675792
          0.62655875     0.64406568     0.65305515     0.67743652     0.68512450
          0.69111742     0.71669344     0.72260564     0.74201798

    E(LUMO) :     0.24757651 au (symmetry 1)
  - E(HOMO) :    -0.22566865 au (symmetry 1)
  ------------------------------------------
    gap     :     0.47324517 au

 >>> Writing SIRIFC interface file

 >>>> CPU and wall time for SCF :      95.050      65.456


                       .-----------------------------------.
                       | >>> Final results from SIRIUS <<< |
                       `-----------------------------------'


@    Spin multiplicity:           1
@    Spatial symmetry:            1 ( irrep  A   in C1  )
@    Total charge of molecule:    0

@    Final HF energy:            -673.590571119518                 
@    Nuclear repulsion:           957.106334596642
@    Electronic energy:         -1630.696905716160

@    Final gradient norm:           0.000006581991

 
     Date and time (Linux)  : Wed Jul 27 00:37:14 2016
     Host name              : copper                                  

File label for MO orbitals:  27Jul16   FOCKDIIS

 (Only coefficients >0.0100 are printed.)

 Molecular orbitals for symmetry species 1  (A  )
 ------------------------------------------------

    Orbital        45       46       47       48       49       50       51
   1 N   :1s     0.0016   0.0004   0.0035  -0.0131   0.0683   0.0002  -0.0145
   2 N   :1s    -0.0035  -0.0050  -0.0170   0.0634  -0.3472  -0.0005   0.0753
   3 N   :2px   -0.0227  -0.0169  -0.0467   0.0545   0.1427   0.0206   0.0612
   4 N   :2py    0.0335  -0.0534  -0.0144   0.0481  -0.4775  -0.0018   0.0559
   5 N   :2pz    0.0440   0.0033   0.0176   0.0397  -0.6236  -0.0192   0.0686
   6 C   :1s     0.0067  -0.0069  -0.0049   0.0016   0.0051  -0.0037   0.0269
   7 C   :1s    -0.0266   0.0273   0.0176  -0.0022  -0.0180   0.0145  -0.1128
   8 C   :2px   -0.0189   0.0588   0.0466  -0.0251  -0.1788  -0.0044  -0.0946
   9 C   :2py   -0.0563   0.1365   0.0493   0.0077   0.1444  -0.0421  -0.0904
  10 C   :2pz   -0.1549   0.1096  -0.0224   0.0410  -0.0304   0.0159  -0.0438
  11 C   :1s    -0.0124   0.0057   0.0005   0.0014  -0.0164  -0.0009   0.0020
  12 C   :1s     0.0329  -0.0073  -0.0026  -0.0034   0.0644   0.0035  -0.0031
  13 C   :2px    0.1003  -0.1081  -0.0063   0.0012  -0.0226   0.1384   0.0291
  14 C   :2py    0.0630  -0.0603  -0.0092   0.0043  -0.0125   0.2378   0.0426
  15 C   :2pz    0.1568  -0.1434   0.0017  -0.0218  -0.0253  -0.0604   0.0345
  16 O   :1s     0.0174  -0.0150  -0.0008  -0.0014   0.0023  -0.0006   0.0013
  17 O   :1s    -0.0937   0.0821   0.0036   0.0072  -0.0124   0.0037  -0.0066
  18 O   :2px   -0.1189   0.1040  -0.0064   0.0173  -0.0591   0.3303   0.0547
  19 O   :2py    0.2133  -0.2033  -0.0127  -0.0090  -0.0352   0.4938   0.0321
  20 O   :2pz    0.2354  -0.2366   0.0130  -0.0358  -0.1993  -0.1178  -0.2717
  21 C   :1s     0.0012  -0.0028   0.0034  -0.0116  -0.0077   0.0084  -0.0005
  22 C   :1s    -0.0058   0.0124  -0.0120   0.0452   0.0333  -0.0338  -0.0014
  23 C   :2px   -0.0031  -0.1074  -0.0847   0.1562   0.0402   0.0167  -0.0006
  24 C   :2py   -0.0196  -0.1193  -0.0150  -0.0820  -0.0677   0.0554   0.0693
  25 C   :2pz   -0.0128  -0.0866   0.0566  -0.1212   0.0426  -0.0307  -0.0324
  26 H   :1s    -0.0173  -0.1524   0.0261  -0.1484  -0.0402   0.0051   0.0596
  27 H   :1s     0.0087   0.1317  -0.0180   0.0331  -0.0519   0.0156   0.0478
  28 C   :1s     0.0124   0.0105  -0.0025   0.0084  -0.0063   0.0005  -0.0002
  29 C   :1s    -0.0497  -0.0440   0.0097  -0.0349   0.0254   0.0000   0.0005
  30 C   :2px    0.0232   0.0748   0.0668  -0.1306  -0.0501  -0.0081   0.0145
  31 C   :2py    0.0989   0.0715   0.0087   0.1716  -0.0146   0.0572  -0.3074
  32 C   :2pz    0.1449   0.1337  -0.1142   0.1929   0.0273  -0.0466   0.2146
  33 C   :1s    -0.0107  -0.0195  -0.0030   0.0065   0.0039   0.0024   0.0013
  34 C   :1s     0.0361   0.0675   0.0102  -0.0232  -0.0128  -0.0079  -0.0044
  35 C   :2px   -0.1176  -0.1418  -0.0135  -0.0589   0.0173   0.0069   0.0111
  36 C   :2py   -0.0381  -0.0629   0.2040   0.0537   0.0001   0.0220  -0.1698
  37 C   :2pz   -0.0513  -0.0414  -0.1259  -0.0790   0.0084  -0.0170   0.1171
  38 N   :1s    -0.0138  -0.0104  -0.0024  -0.0020  -0.0018  -0.0002  -0.0031
  39 N   :1s     0.0639   0.0485   0.0136   0.0064   0.0088   0.0006   0.0160
  40 N   :2px   -0.0045   0.0136   0.0027   0.0253  -0.0119  -0.0046  -0.0034
  41 N   :2py   -0.0541  -0.0797   0.3057   0.1565   0.0310  -0.0375   0.2392
  42 N   :2pz   -0.0936  -0.0948  -0.2489  -0.0145  -0.0087   0.0302  -0.1573
  43 H   :1s    -0.0167  -0.0132  -0.0218   0.0698  -0.0055  -0.0014  -0.0066
  44 C   :1s     0.0147   0.0139   0.0047  -0.0093  -0.0018  -0.0001   0.0008
  45 C   :1s    -0.0485  -0.0457  -0.0162   0.0327   0.0069   0.0001  -0.0030
  46 C   :2px   -0.0048   0.0515   0.1206  -0.3344  -0.0202   0.0029  -0.0125
  47 C   :2py    0.0466   0.0477  -0.0515  -0.0036   0.0086  -0.0245   0.1613
  48 C   :2pz    0.0651   0.0422   0.0148   0.0545  -0.0052   0.0162  -0.1215
  50 C   :1s     0.0202   0.0081   0.0203  -0.0449  -0.0027   0.0011   0.0026
  51 C   :2px   -0.0542  -0.0912  -0.1043   0.3194   0.0171  -0.0053   0.0162
  52 C   :2py   -0.1434  -0.1266  -0.1104  -0.1048  -0.0091   0.0537  -0.2629
  53 C   :2pz   -0.1888  -0.1936   0.1331  -0.0841   0.0020  -0.0327   0.1877
  55 C   :1s    -0.0121   0.0048   0.0096  -0.0273   0.0002  -0.0012  -0.0030
  56 C   :2px    0.0499   0.0886   0.0856  -0.2055  -0.0159  -0.0006   0.0126
  57 C   :2py    0.1284   0.1439  -0.2605  -0.0616  -0.0110   0.0398  -0.2582
  58 C   :2pz    0.1968   0.1643   0.1598   0.1113   0.0048  -0.0309   0.1757
  59 H   :1s    -0.0728  -0.1086  -0.0813   0.2290   0.0156  -0.0016   0.0001
  61 C   :1s    -0.0112  -0.0176   0.0021  -0.0077  -0.0018   0.0009   0.0006
  62 C   :2px   -0.0584  -0.0984  -0.0690   0.2335   0.0116  -0.0016   0.0028
  63 C   :2py   -0.1390  -0.0995  -0.2875  -0.1488  -0.0114   0.0069  -0.0775
  64 C   :2pz   -0.1820  -0.1741   0.2340   0.0032   0.0045  -0.0024   0.0567
  65 H   :1s     0.2374   0.2270   0.0145  -0.0321  -0.0041  -0.0011  -0.0015
  67 C   :1s    -0.0281  -0.0275  -0.0020   0.0076   0.0012  -0.0002  -0.0012
  68 C   :2px    0.0820   0.1211   0.0904  -0.2065  -0.0103   0.0024  -0.0092
  69 C   :2py    0.0932   0.0988  -0.2840  -0.0916  -0.0064  -0.0405   0.1904
  70 C   :2pz    0.1347   0.0951   0.1893   0.1047   0.0036   0.0273  -0.1366
  71 H   :1s    -0.1150  -0.0669   0.0530  -0.1539  -0.0055   0.0013   0.0016
  72 C   :1s    -0.0104  -0.0094  -0.0033   0.0101   0.0007  -0.0002   0.0000
  73 C   :1s     0.0344   0.0293   0.0088  -0.0289  -0.0020   0.0008  -0.0001
  74 C   :2px   -0.0544  -0.0877  -0.0664   0.2163   0.0095   0.0014  -0.0131
  75 C   :2py   -0.1037  -0.0706  -0.1964  -0.1192  -0.0004  -0.0511   0.2928
  76 C   :2pz   -0.1395  -0.1272   0.1687  -0.0190  -0.0028   0.0384  -0.2041
  77 H   :1s    -0.0479  -0.0856  -0.0814   0.2257   0.0106  -0.0009   0.0016
  78 H   :1s    -0.0542  -0.0457   0.0255  -0.0704  -0.0034  -0.0026  -0.0038
  79 H   :1s    -0.0060  -0.0174  -0.0057  -0.0127   0.0711   0.0090  -0.0286
  80 H   :1s     0.1227  -0.1684  -0.0069  -0.0391  -0.2102   0.0315   0.0687
  81 H   :1s    -0.0100   0.0552   0.0366  -0.0441   0.1207  -0.0157  -0.0478
  82 O   :1s     0.0553  -0.0448  -0.0003  -0.0074   0.0118   0.0024   0.0019
  83 O   :1s    -0.2869   0.2331   0.0014   0.0387  -0.0603  -0.0132  -0.0108
  84 O   :2px   -0.1850   0.1336  -0.0108   0.0461  -0.1844  -0.3144   0.0089
  85 O   :2py    0.0904  -0.1328  -0.0201   0.0064  -0.0187  -0.6166  -0.1252
  86 O   :2pz   -0.3681   0.3059   0.0115   0.0570  -0.2258   0.1839  -0.0815
  87 H   :1s     0.2251  -0.1910  -0.0001  -0.0308   0.0439   0.0128  -0.0071

    Orbital        52       53       54       55       56       57       58
   1 N   :1s     0.0280   0.0002   0.0021   0.0021  -0.0002  -0.0149  -0.0125
   2 N   :1s    -0.1475  -0.0012  -0.0108  -0.0121   0.0014   0.0865   0.0743
   3 N   :2px   -0.0358   0.0040  -0.0304  -0.0189   0.0015   0.0705   0.0890
   4 N   :2py   -0.1103  -0.0035  -0.0026   0.0065  -0.0005  -0.0220  -0.0420
   5 N   :2pz   -0.2079  -0.0053   0.0113   0.0007   0.0038  -0.0410  -0.0080
   6 C   :1s    -0.0278   0.0012  -0.0140  -0.0100   0.0019  -0.0044   0.0339
   7 C   :1s     0.1229  -0.0047   0.0587   0.0479  -0.0084   0.0194  -0.1743
   8 C   :2px    0.1003  -0.0023   0.0389   0.0129  -0.0073   0.0947   0.0001
   9 C   :2py   -0.0394  -0.0021   0.0890   0.0526  -0.0306   0.0944  -0.1522
  10 C   :2pz    0.3223   0.0104  -0.0616  -0.0296   0.0040  -0.0188   0.0970
  11 C   :1s    -0.0131  -0.0007   0.0015  -0.0002   0.0004   0.0043   0.0032
  12 C   :1s     0.0458   0.0022  -0.0088   0.0007  -0.0008  -0.0250  -0.0138
  13 C   :2px   -0.0405   0.0017   0.0099   0.0143  -0.0131   0.4251   0.0863
  14 C   :2py   -0.0056   0.0063   0.0092   0.0242  -0.0275   0.6635   0.1111
  15 C   :2pz   -0.1599  -0.0060   0.0075  -0.0050   0.0080  -0.1483  -0.0202
  17 O   :1s     0.0102   0.0018   0.0055  -0.0007  -0.0025  -0.0014  -0.0056
  18 O   :2px    0.0443   0.0076  -0.0089  -0.0193   0.0151  -0.3550  -0.0470
  19 O   :2py    0.1665   0.0122  -0.0087  -0.0289   0.0199  -0.5765  -0.0923
  20 O   :2pz    0.7099   0.0016  -0.0411   0.0056  -0.0038   0.1361   0.0247
  21 C   :1s     0.0064   0.0005   0.0002   0.0022  -0.0010   0.0325  -0.0016
  22 C   :1s    -0.0261  -0.0021   0.0028  -0.0075   0.0035  -0.1650  -0.0013
  23 C   :2px   -0.0032  -0.0036   0.0037   0.0034  -0.0008   0.0857   0.0241
  24 C   :2py    0.0515   0.0041  -0.0448   0.0288  -0.0154   0.1562  -0.1025
  25 C   :2pz   -0.0836  -0.0083   0.0258  -0.0124   0.0196  -0.0850   0.0646
  26 H   :1s    -0.0364   0.0012  -0.0404  -0.0285   0.0073  -0.0161   0.0793
  27 H   :1s     0.1092   0.0077  -0.0769  -0.0394   0.0192   0.0807   0.1570
  29 C   :1s    -0.0051   0.0009   0.0028   0.0079   0.0004  -0.0075  -0.0377
  30 C   :2px    0.0127   0.0032  -0.0258  -0.0140   0.0068   0.0070   0.0482
  31 C   :2py   -0.0769  -0.0247   0.3852   0.2224  -0.0708   0.0571  -0.5376
  32 C   :2pz    0.0581   0.0196  -0.2691  -0.1536   0.0524  -0.0353   0.3677
  34 C   :1s     0.0062  -0.0039   0.0008  -0.0012  -0.0053  -0.0149   0.0021
  35 C   :2px   -0.0053  -0.0198  -0.0137   0.0232  -0.0004   0.0068  -0.0298
  36 C   :2py   -0.0556   0.2399   0.3078  -0.3958  -0.0960  -0.0645   0.5036
  37 C   :2pz    0.0343  -0.1633  -0.2134   0.2779   0.0735   0.0489  -0.3636
  39 N   :1s     0.0013   0.0175  -0.0216   0.0168   0.0301   0.0112  -0.0437
  40 N   :2px    0.0032  -0.0009   0.0021   0.0019   0.0062  -0.0017  -0.0133
  41 N   :2py    0.0512   0.2740  -0.3312   0.1684   0.2664   0.0446  -0.2446
  42 N   :2pz   -0.0370  -0.1874   0.2244  -0.1149  -0.1721  -0.0241   0.1638
  43 H   :1s     0.0011  -0.0089   0.0110  -0.0142  -0.0300  -0.0085   0.0437
  46 C   :2px   -0.0047   0.0180   0.0073  -0.0027   0.0294   0.0034  -0.0030
  47 C   :2py    0.0486  -0.3674  -0.1023   0.0089  -0.5264  -0.0355   0.1415
  48 C   :2pz   -0.0356   0.2597   0.0805  -0.0131   0.3706   0.0247  -0.0871
  51 C   :2px    0.0084   0.0194   0.0025  -0.0121  -0.0120  -0.0004  -0.0193
  52 C   :2py   -0.0994  -0.3485  -0.0943   0.2789   0.2873  -0.0476   0.2930
  53 C   :2pz    0.0631   0.2439   0.0637  -0.1961  -0.1980   0.0414  -0.1963
  56 C   :2px    0.0036  -0.0047   0.0128   0.0184  -0.0118   0.0010   0.0119
  57 C   :2py   -0.1047   0.0945  -0.3050  -0.4457   0.2679   0.0580  -0.1318
  58 C   :2pz    0.0761  -0.0663   0.2150   0.3098  -0.1880  -0.0409   0.0984
  62 C   :2px    0.0030  -0.0168   0.0056  -0.0054   0.0242  -0.0006   0.0026
  63 C   :2py   -0.0383   0.3804  -0.1163   0.1275  -0.5267  -0.0163  -0.0861
  64 C   :2pz    0.0244  -0.2667   0.0807  -0.0900   0.3690   0.0141   0.0642
  68 C   :2px   -0.0042  -0.0104  -0.0120  -0.0182  -0.0142   0.0026  -0.0107
  69 C   :2py    0.0772   0.2270   0.2597   0.3756   0.3174  -0.0421   0.2792
  70 C   :2pz   -0.0541  -0.1588  -0.1817  -0.2651  -0.2231   0.0300  -0.1946
  74 C   :2px   -0.0047   0.0090  -0.0145   0.0211  -0.0051  -0.0035   0.0135
  75 C   :2py    0.1150  -0.1534   0.2863  -0.4318   0.1439   0.0653  -0.2948
  76 C   :2pz   -0.0822   0.1052  -0.2018   0.3031  -0.1037  -0.0440   0.2123
  79 H   :1s     0.1078   0.0017  -0.0121  -0.0095   0.0051  -0.0575   0.0252
  80 H   :1s    -0.1193  -0.0028  -0.0072   0.0090  -0.0132   0.1251   0.0162
  81 H   :1s     0.0221  -0.0008   0.0249   0.0143  -0.0064  -0.0028  -0.0593
  83 O   :1s     0.0293   0.0007   0.0003  -0.0010   0.0009  -0.0130  -0.0017
  84 O   :2px   -0.1198  -0.0044  -0.0049  -0.0070   0.0064  -0.1262  -0.0116
  85 O   :2py    0.1261  -0.0052  -0.0209  -0.0101   0.0099  -0.2670  -0.0480
  86 O   :2pz    0.3264   0.0062  -0.0116   0.0040  -0.0050   0.0602   0.0023
  87 H   :1s     0.0084  -0.0008   0.0006   0.0005   0.0001   0.0302   0.0127

    Orbital        59       60       61       62       63       64
   1 N   :1s    -0.0205  -0.0958  -0.0838   0.0658  -0.0497  -0.0062
   2 N   :1s     0.1281   0.6115   0.5513  -0.4181   0.3243   0.0554
   3 N   :2px    0.1018   0.1627  -0.1687  -0.2011  -0.0984   0.0242
   4 N   :2py   -0.0926  -0.1737   0.0322   0.1871   0.0227  -0.4266
   5 N   :2pz   -0.0028  -0.1680  -0.1987   0.0904  -0.1141   0.2056
   6 C   :1s     0.0215   0.0075   0.0488   0.0200   0.0012   0.0367
   7 C   :1s    -0.1140  -0.0159  -0.2550  -0.1264   0.0002  -0.1904
   8 C   :2px    0.1037   0.4454  -0.1179  -0.5433   0.0380  -0.0786
   9 C   :2py   -0.1602  -0.1884  -0.0520   0.1281   0.0131  -0.4534
  10 C   :2pz    0.1006  -0.0745  -0.5827  -0.2062  -0.2071  -0.0905
  11 C   :1s     0.0174   0.0341  -0.1065  -0.1004  -0.0118  -0.0623
  12 C   :1s    -0.0922  -0.1801   0.6087   0.5553   0.0750   0.3540
  13 C   :2px    0.0596   0.0836  -0.1747  -0.1928  -0.0298   0.0112
  14 C   :2py   -0.0147  -0.1352   0.0427   0.2015  -0.0534   0.1477
  15 C   :2pz    0.0266  -0.0503  -0.3863  -0.0548  -0.1743   0.1181
  16 O   :1s     0.0001   0.0006   0.0156   0.0091   0.0016   0.0172
  17 O   :1s    -0.0038  -0.0113  -0.0905  -0.0447  -0.0100  -0.1088
  18 O   :2px   -0.0037   0.0243   0.1116   0.0454   0.0194   0.1039
  19 O   :2py   -0.0091   0.0313  -0.0504  -0.0760   0.0203  -0.1376
  20 O   :2pz   -0.0005   0.0389   0.1470  -0.0016   0.0685  -0.0341
  21 C   :1s    -0.0137  -0.0495   0.0100  -0.0164   0.0066  -0.0334
  22 C   :1s     0.0690   0.2745  -0.0546   0.1016  -0.0351   0.1824
  23 C   :2px    0.0678   0.3478  -0.1374  -0.0153  -0.0651  -0.0150
  24 C   :2py   -0.1375  -0.0739  -0.0736  -0.0317   0.1753  -0.4649
  25 C   :2pz    0.1002  -0.1413  -0.3183  -0.1401   0.0420   0.0568
  26 H   :1s     0.0363   0.0807   0.3242   0.0544  -0.1587   0.2475
  27 H   :1s     0.1285  -0.0211  -0.3213  -0.2203   0.0447  -0.0302
  28 C   :1s     0.0154   0.0619  -0.0193  -0.0039   0.0344   0.0442
  29 C   :1s    -0.0879  -0.3524   0.1025   0.0232  -0.1892  -0.2736
  30 C   :2px    0.0771   0.2998  -0.0195  -0.0465  -0.1030   0.0140
  31 C   :2py   -0.1469   0.0213  -0.1546  -0.0860   0.1550   0.1608
  32 C   :2pz    0.0924  -0.1830  -0.0821   0.0299   0.3105  -0.0862
  33 C   :1s    -0.0022  -0.0343   0.0125  -0.0373  -0.0218  -0.0003
  34 C   :1s     0.0093   0.1665  -0.0643   0.2059   0.1447   0.0094
  35 C   :2px    0.0097   0.2294  -0.1263   0.2322  -0.0768  -0.1861
  36 C   :2py    0.0135  -0.2042   0.0001  -0.0475   0.2014  -0.0821
  37 C   :2pz   -0.0385  -0.1995  -0.0597  -0.1386   0.2488   0.0423
  38 N   :1s     0.0067   0.1104  -0.0523   0.1212   0.0012  -0.0256
  39 N   :1s    -0.0431  -0.7271   0.3429  -0.8035   0.0030   0.1693
  40 N   :2px    0.0118  -0.0746   0.0370  -0.1511   0.0692  -0.0450
  41 N   :2py    0.1272  -0.0339  -0.0812   0.0449   0.1975   0.0005
  42 N   :2pz   -0.0761  -0.1129  -0.0941  -0.0230   0.3104  -0.0023
  43 H   :1s     0.0125   0.5360  -0.1775   0.5852  -0.1985  -0.0365
  44 C   :1s    -0.0004  -0.0158   0.0323  -0.0565  -0.0542   0.0076
  45 C   :1s     0.0017   0.0758  -0.1828   0.3177   0.3240  -0.0411
  46 C   :2px    0.0485   0.1483  -0.1264   0.1530   0.1184  -0.1373
  47 C   :2py   -0.4072   0.1786  -0.1505   0.0959   0.1065   0.0010
  48 C   :2pz    0.3194   0.1152  -0.1241   0.2432   0.1349  -0.0782
  49 C   :1s    -0.0028   0.0177   0.0219   0.0274  -0.0674  -0.0166
  50 C   :1s     0.0153  -0.1083  -0.1326  -0.1571   0.4075   0.0986
  51 C   :2px   -0.0101   0.1211   0.0262   0.0610  -0.1833  -0.1449
  52 C   :2py    0.4625  -0.0692  -0.0046   0.0690   0.1077  -0.0766
  53 C   :2pz   -0.2952   0.1038  -0.1382  -0.0581   0.1319   0.0942
  54 C   :1s    -0.0019  -0.0296   0.0092  -0.0251  -0.0156  -0.0156
  55 C   :1s     0.0117   0.1755  -0.0595   0.1497   0.1071   0.1017
  56 C   :2px    0.0255   0.0516   0.0488   0.0289  -0.2943  -0.2153
  57 C   :2py   -0.4009   0.1410  -0.0517   0.0024  -0.0876   0.0023
  58 C   :2pz    0.2980   0.0404   0.0135   0.0973  -0.0828  -0.0861
  59 H   :1s    -0.0022  -0.0266   0.0959  -0.0487  -0.3748  -0.2765
  60 C   :1s    -0.0007   0.0054   0.0164  -0.0061  -0.0493  -0.0178
  61 C   :1s     0.0043  -0.0287  -0.1019   0.0409   0.3085   0.1147
  62 C   :2px   -0.0150   0.0558   0.0137   0.0492  -0.1364  -0.1361
  63 C   :2py    0.3916  -0.0658   0.0571   0.0155  -0.1257  -0.1158
  64 C   :2pz   -0.2717   0.0344   0.0118  -0.0572  -0.1840  -0.0923
  65 H   :1s     0.0024   0.0454   0.1028  -0.0258  -0.4516  -0.2576
  66 C   :1s    -0.0017  -0.0115   0.0201  -0.0215  -0.0467  -0.0086
  67 C   :1s     0.0105   0.0693  -0.1247   0.1323   0.2932   0.0557
  68 C   :2px    0.0286   0.0723  -0.0880   0.1335   0.1295  -0.0615
  69 C   :2py   -0.3782   0.0674  -0.0073  -0.0457  -0.1233  -0.0437
  70 C   :2pz    0.2704  -0.0252   0.0540  -0.0006  -0.1782  -0.1078
  71 H   :1s    -0.0092  -0.0705   0.1593  -0.1795  -0.4306  -0.0899
  72 C   :1s    -0.0015  -0.0057   0.0082   0.0016  -0.0219  -0.0159
  73 C   :1s     0.0098   0.0403  -0.0567   0.0027   0.1454   0.0998
  74 C   :2px   -0.0046   0.0853  -0.1438   0.1741   0.2652  -0.0611
  75 C   :2py    0.3928  -0.0287   0.0213   0.0347  -0.0280  -0.0314
  76 C   :2pz   -0.2664   0.0658  -0.0208  -0.0487  -0.0565   0.0155
  77 H   :1s    -0.0248  -0.1441   0.1964  -0.2102  -0.3507   0.0187
  78 H   :1s     0.0156   0.1548   0.1028  -0.0221  -0.4057   0.0111
  79 H   :1s     0.0410  -0.2453  -0.5473   0.0692  -0.3196   0.3760
  80 H   :1s    -0.0367  -0.2525  -0.2081   0.1306  -0.0817  -0.2924
  81 H   :1s    -0.1173  -0.3423  -0.2410   0.2483  -0.1296  -0.4833
  82 O   :1s    -0.0042  -0.0285  -0.0077   0.0446  -0.0274   0.0658
  83 O   :1s     0.0251   0.1777   0.0567  -0.2779   0.1770  -0.4245
  84 O   :2px    0.0255   0.0091  -0.1869  -0.0691  -0.1139   0.1872
  85 O   :2py   -0.0284  -0.0455   0.0925   0.1075   0.0251  -0.0164
  86 O   :2pz   -0.0462  -0.1936   0.0676   0.3243  -0.1098   0.3080
  87 H   :1s     0.0152  -0.1042  -0.2371   0.1085  -0.2384   0.4979



 >>>> Total CPU  time used in SIRIUS :     96.81 seconds
 >>>> Total wall time used in SIRIUS :     65.73 seconds

 
     Date and time (Linux)  : Wed Jul 27 00:37:14 2016
     Host name              : copper                                  


                     .---------------------------------------.
                     | End of Wave Function Section (SIRIUS) |
                     `---------------------------------------'



                 .------------------------------------------------.
                 | Starting in Dynamic Property Section (RESPONS) |
                 `------------------------------------------------'


 ------------------------------------------------------------------------------
  RESPONSE  -  an MCSCF, MC-srDFT, DFT, and SOPPA response property program
 ------------------------------------------------------------------------------


 <<<<<<<<<< OUTPUT FROM RESPONSE INPUT PROCESSING >>>>>>>>>>




   SCF energy         :     -673.590571119518245
 -- inactive part     :    -1630.696905716160472
 -- nuclear repulsion :      957.106334596642228


                     ***************************************
                     *** RHF response calculation (TDHF) ***
                     ***************************************


 >>>> Total CPU  time used in RESPONSE:   0.26 seconds
 >>>> Total wall time used in RESPONSE:   0.04 seconds


                   .-------------------------------------------.
                   | End of Dynamic Property Section (RESPONS) |
                   `-------------------------------------------'



        *****************************************************************
        ******** Output from **PROPE input processing for ABACUS ********
        *****************************************************************



 The following molecular properties will be calculated in this run:
 ------------------------------------------------------------------

 Default print level:        0

      Direct calculation - no two-electron integrals written or read.
      Dynamic electric dipole polarizability
      Natural orbital connection is used
      for perturbation dependent basis sets.
      Linear response properties


 Changes of defaults for *ABALNR:
 --------------------------------

 Number of frequencies          :   1
 Frequencies                    :  0.000000
 Print level                    :   0
 Lin Resp convergence threshold :  5.00D-05
 Max. Lin Resp iterations       :  60

 Center of mass dipole origin  :    6.317790    0.497269   -2.037318

 Center of mass gauge origin   :    6.317790    0.497269   -2.037318


                 .------------------------------------------------.
                 | Starting in Static Property Section (ABACUS) - |
                 `------------------------------------------------'


 
     Date and time (Linux)  : Wed Jul 27 00:37:14 2016
     Host name              : copper                                  


     ***********************************************************************
     ****************** Solving Linear Response Equations ******************
     ***********************************************************************

 >>>  Time used in LNRABA     is  3 minutes 56 seconds


   ***************************************************************************
   ************************ FINAL RESULTS from ABACUS ************************
   ***************************************************************************


 
     Date and time (Linux)  : Wed Jul 27 00:40:41 2016
     Host name              : copper                                  


                             Molecular geometry (au)
                             -----------------------

 N         -0.1322481129            0.6277645982            0.5331452526
 C          2.5942227233            0.1834382324           -0.0244885336
 C          3.9626187578           -0.0989447473            2.5856465361
 O          5.9304311387           -1.2403566620            2.9064295684
 C          3.6905717401            2.4823706662           -1.5034702566
 H          3.4851703686            4.1669604424           -0.3404590659
 H          2.5427965605            2.7580429977           -3.1909328630
 C          6.4352066145            2.1298369646           -2.2521898135
 C          8.4745239878            3.0679775543           -1.0580421620
 N         10.6786703006            2.3393536449           -2.3214549688
 H         12.4739525818            2.6668478375           -1.7061636844
 C         10.0007367214            0.8232165294           -4.3712420964
 C          7.3589751562            0.6723641809           -4.3961295604
 C          6.1716884487           -0.7242578646           -6.3176019046
 H          4.1317551532           -0.8649387671           -6.3902824951
 C          7.6310471254           -1.9062636170           -8.1014436943
 H          6.7457346720           -2.9904468329           -9.5914201704
 C         10.2886439654           -1.7375795037           -8.0349270555
 H         11.3818065417           -2.6981459614           -9.4731983991
 C         11.5026828434           -0.3824890641           -6.1921983897
 H         13.5411444757           -0.2433518433           -6.1337960110
 H          8.5902455152            4.2377695616            0.6149130360
 H         -0.9750567019            1.4133083805           -1.0370176370
 H          2.9140571920           -1.5389815645           -1.1216399865
 H         -1.0019854670           -1.1005745399            0.7718600784
 O          2.7544358220            1.1332474615            4.5530116935
 H          1.1319488475            1.6709754427            3.7884908962





                        Molecular wave function and energy
                        ----------------------------------

     Spatial symmetry   1 ( A   )
     Spin multiplicity  1
     2 * M_S            0
     State number       1
     Total charge       0

     Total energy       -673.5905711195 au (Hartrees)
                        -18329.33183094 eV
                          -1768511.7718 kJ/mol
                           -422684.4579 kcal/mol


                   Scalar Breit-Pauli relativistic corrections
                   -------------------------------------------

     Darwin correction:                          0.8342529204 au
     Mass-velocity correction:                  -1.0620026888 au

     Total relativistic correction:             -0.2277497685 au (0.0338%)
     Non-relativistic + relativistic energy:  -673.8183208880 au



      (Note that these corrections are NOT included in the results below.)


                                  Dipole moment
                                  -------------

                 au               Debye          C m (/(10**-30)
              1.066595           2.711015           9.042971


                             Dipole moment components
                             ------------------------

                 au               Debye          C m (/(10**-30)

      x     -0.47508308        -1.20754067        -4.02792211
      y      0.37562373         0.95474022         3.18467059
      z     -0.87796829        -2.23157267        -7.44372517


   Units:   1 a.u. =   2.54175 Debye 
            1 a.u. =   8.47835 (10**-30) C m (SI)




    ++++++++++++++++++++++++++++++++++++++++++++++++++++++++++++++++++++++++++
    ++++++++++++++++++ Frequency dependent polarizabilities ++++++++++++++++++
    ++++++++++++++++++++++++++++++++++++++++++++++++++++++++++++++++++++++++++


          Polarizability tensor for frequency     0.000000 au
          ----------------------------------------------------
                            Ex             Ey             Ez

                Ex    95.11544      -2.277540      -3.775860    
                Ey   -2.277652       49.99638       30.41905    
                Ez   -3.775783       30.41904       77.26089    

Isotropic polarizability:   74.12424    

  Max    interatomic separation is    9.1659 Angstrom (   17.3211 Bohr)
  between atoms   27 and   19, "H     " and "H     ".

  Min HX interatomic separation is    0.9909 Angstrom (    1.8725 Bohr)

  Min YX interatomic separation is    1.2157 Angstrom (    2.2974 Bohr)


  Bond distances (Angstrom):
  --------------------------

                  atom 1     atom 2       distance
                  ------     ------       --------
  bond distance:  C          N            1.491306
  bond distance:  C          C            1.566673
  bond distance:  O          C            1.215727
  bond distance:  C          C            1.558556
  bond distance:  H          C            1.088695
  bond distance:  H          C            1.089760
  bond distance:  C          C            1.516984
  bond distance:  C          C            1.345496
  bond distance:  N          C            1.398607
  bond distance:  H          N            1.019113
  bond distance:  C          N            1.396055
  bond distance:  C          C            1.456348
  bond distance:  C          C            1.400299
  bond distance:  C          C            1.405288
  bond distance:  H          C            1.082733
  bond distance:  C          C            1.370657
  bond distance:  H          C            1.081810
  bond distance:  C          C            1.409609
  bond distance:  H          C            1.082723
  bond distance:  C          C            1.402614
  bond distance:  C          C            1.370335
  bond distance:  H          C            1.081659
  bond distance:  H          C            1.081981
  bond distance:  H          N            1.030581
  bond distance:  H          C            1.093845
  bond distance:  H          N            1.031636
  bond distance:  O          C            1.384841
  bond distance:  H          O            0.990863


  Bond angles (degrees):
  ----------------------

                  atom 1     atom 2     atom 3         angle
                  ------     ------     ------         -----
  bond angle:     C          N          H            108.829
  bond angle:     C          N          H            108.425
  bond angle:     H          N          H            105.263
  bond angle:     N          C          C            106.724
  bond angle:     N          C          C            109.659
  bond angle:     N          C          H            112.712
  bond angle:     C          C          C            110.189
  bond angle:     C          C          H            108.479
  bond angle:     C          C          H            109.043
  bond angle:     C          C          O            124.499
  bond angle:     C          C          O            113.859
  bond angle:     O          C          O            121.628
  bond angle:     C          C          H            108.548
  bond angle:     C          C          H            107.969
  bond angle:     C          C          C            113.052
  bond angle:     H          C          H            107.335
  bond angle:     H          C          C            110.116
  bond angle:     H          C          C            109.637
  bond angle:     C          C          C            126.860
  bond angle:     C          C          C            126.154
  bond angle:     C          C          C            106.981
  bond angle:     C          C          N            110.039
  bond angle:     C          C          H            129.849
  bond angle:     N          C          H            120.109
  bond angle:     C          N          H            125.297
  bond angle:     C          N          C            108.394
  bond angle:     H          N          C            125.839
  bond angle:     N          C          C            107.254
  bond angle:     N          C          C            130.511
  bond angle:     C          C          C            122.230
  bond angle:     C          C          C            107.312
  bond angle:     C          C          C            133.797
  bond angle:     C          C          C            118.890
  bond angle:     C          C          H            120.505
  bond angle:     C          C          C            119.105
  bond angle:     H          C          C            120.391
  bond angle:     C          C          H            119.998
  bond angle:     C          C          C            121.066
  bond angle:     H          C          C            118.936
  bond angle:     C          C          H            119.062
  bond angle:     C          C          C            121.241
  bond angle:     H          C          C            119.697
  bond angle:     C          C          C            117.468
  bond angle:     C          C          H            120.965
  bond angle:     C          C          H            121.567
  bond angle:     C          O          H            103.198




 CPU time statistics for ABACUS
 ------------------------------

 MAGINT     00:00:01       1 %
 LNRABA     00:03:56      99 %

 TOTAL      00:03:58     100 %


 >>>> Total CPU  time used in ABACUS:  3 minutes 58 seconds
 >>>> Total wall time used in ABACUS:  3 minutes 27 seconds


                   .-------------------------------------------.
                   | End of Static Property Section (ABACUS) - |
                   `-------------------------------------------'

 >>>> Total CPU  time used in DALTON:  5 minutes 36 seconds
 >>>> Total wall time used in DALTON:  4 minutes 33 seconds

 
     Date and time (Linux)  : Wed Jul 27 00:40:41 2016
     Host name              : copper                                  
