    -----------------------------------------------------------------------
          Psi4: An Open-Source Ab Initio Electronic Structure Package
                              Psi4 1.0.54 Driver

                          Git: Rev {master} 8d4cec3 dirty

    J. M. Turney, A. C. Simmonett, R. M. Parrish, E. G. Hohenstein,
    F. A. Evangelista, J. T. Fermann, B. J. Mintz, L. A. Burns, J. J. Wilke,
    M. L. Abrams, N. J. Russ, M. L. Leininger, C. L. Janssen, E. T. Seidl,
    W. D. Allen, H. F. Schaefer, R. A. King, E. F. Valeev, C. D. Sherrill,
    and T. D. Crawford, WIREs Comput. Mol. Sci. 2, 556-565 (2012)
    (doi: 10.1002/wcms.93)

                         Additional Contributions by
    A. E. DePrince, U. Bozkaya, A. Yu. Sokolov, D. G. A. Smith, R. Di Remigio,
    R. M. Richard, J. F. Gonthier, H. R. McAlexander, M. Saitow, and
    B. P. Pritchard
    -----------------------------------------------------------------------


    Psi4 started on: Tue Aug  2 20:21:53 2016

    Process ID:  12375
    PSI4DATADIR: /home/eric/opt/apps/python/anaconda2/share/psi4
    Memory level set to 256.000 MB

  ==> Input File <==

--------------------------------------------------------------------------
molecule dvb {
    1 2
    C    -1.4152533224   0.2302217854   0.0000000000
    C     1.4152533224  -0.2302217854   0.0000000000
    C    -0.4951331558   1.3144608674   0.0000000000
    C     0.4951331558  -1.3144608674   0.0000000000
    C     0.8894090436   1.0909493743   0.0000000000
    C    -0.8894090436  -1.0909493743   0.0000000000
    H    -0.8795511985   2.3437343748   0.0000000000
    H     0.8795511985  -2.3437343748   0.0000000000
    H     1.5779041557   1.9450061275   0.0000000000
    H    -1.5779041557  -1.9450061275   0.0000000000
    C     2.8845844962  -0.5210893778   0.0000000000
    C    -2.8845844962   0.5210893778   0.0000000000
    H     3.1403356810  -1.5919605685   0.0000000000
    H    -3.1403356810   1.5919605685   0.0000000000
    C     3.8800428103   0.3822535424   0.0000000000
    C    -3.8800428103  -0.3822535424   0.0000000000
    H     3.6946765858   1.4624389570   0.0000000000
    H    -3.6946765858  -1.4624389570   0.0000000000
    H     4.9316453546   0.0711049543   0.0000000000
    H    -4.9316453546  -0.0711049543   0.0000000000
}

set {
    basis sto-3g
    reference rohf
    print_basis true
    print_mos true
}

scf_e, scf_wfn = energy('scf', return_wfn=True)
oeprop(scf_wfn, 'MULLIKEN_CHARGES', 'LOWDIN_CHARGES', 'MULTIPOLE(5)')
--------------------------------------------------------------------------

*** tstart() called on copper
*** at Tue Aug  2 20:21:53 2016


         ---------------------------------------------------------
                                   SCF
            by Justin Turney, Rob Parrish, and Andy Simmonett
                             ROHF Reference
                        1 Threads,    256 MiB Core
         ---------------------------------------------------------

  ==> Geometry <==

    Molecular point group: c2h
    Full point group: C2h

    Geometry (in Angstrom), charge = 1, multiplicity = 2:

       Center              X                  Y                   Z               Mass       
    ------------   -----------------  -----------------  -----------------  -----------------
           C         -1.415253322400     0.230221785400     0.000000000000    12.000000000000
           C          1.415253322400    -0.230221785400     0.000000000000    12.000000000000
           C         -0.495133155800     1.314460867400     0.000000000000    12.000000000000
           C          0.495133155800    -1.314460867400     0.000000000000    12.000000000000
           C          0.889409043600     1.090949374300     0.000000000000    12.000000000000
           C         -0.889409043600    -1.090949374300     0.000000000000    12.000000000000
           H         -0.879551198500     2.343734374800     0.000000000000     1.007825032070
           H          0.879551198500    -2.343734374800     0.000000000000     1.007825032070
           H          1.577904155700     1.945006127500     0.000000000000     1.007825032070
           H         -1.577904155700    -1.945006127500     0.000000000000     1.007825032070
           C          2.884584496200    -0.521089377800     0.000000000000    12.000000000000
           C         -2.884584496200     0.521089377800     0.000000000000    12.000000000000
           H          3.140335681000    -1.591960568500     0.000000000000     1.007825032070
           H         -3.140335681000     1.591960568500     0.000000000000     1.007825032070
           C          3.880042810300     0.382253542400     0.000000000000    12.000000000000
           C         -3.880042810300    -0.382253542400     0.000000000000    12.000000000000
           H          3.694676585800     1.462438957000     0.000000000000     1.007825032070
           H         -3.694676585800    -1.462438957000     0.000000000000     1.007825032070
           H          4.931645354600     0.071104954300     0.000000000000     1.007825032070
           H         -4.931645354600    -0.071104954300     0.000000000000     1.007825032070

  Running in c2h symmetry.

  Rotational constants: A =      0.15403  B =      0.02287  C =      0.01992 [cm^-1]
  Rotational constants: A =   4617.84332  B =    685.76183  C =    597.09209 [MHz]
  Nuclear repulsion =  445.936978114243402

  Charge       = 1
  Multiplicity = 2
  Electrons    = 69
  Nalpha       = 35
  Nbeta        = 34

  ==> Algorithm <==

  SCF Algorithm Type is DF.
  DIIS enabled.
  MOM disabled.
  Fractional occupation disabled.
  Guess Type is GWH.
  Energy threshold   = 1.00e-06
  Density threshold  = 1.00e-06
  Integral threshold = 0.00e+00

  ==> Primary Basis <==

  Basis Set: STO-3G
    Number of shells: 40
    Number of basis function: 60
    Number of Cartesian functions: 60
    Spherical Harmonics?: true
    Max angular momentum: 1

  -AO BASIS SET INFORMATION:
    Name                   = STO-3G
    Total number of shells = 40
    Number of primitives   = 120
    Number of AO           = 60
    Number of SO           = 60
    Maximum AM             = 1
    Spherical Harmonics    = TRUE

  -Contraction Scheme:
    Atom   Type   All Primitives // Shells:
   ------ ------ --------------------------
       1     C     6s 3p // 2s 1p 
       2     C     6s 3p // 2s 1p 
       3     C     6s 3p // 2s 1p 
       4     C     6s 3p // 2s 1p 
       5     C     6s 3p // 2s 1p 
       6     C     6s 3p // 2s 1p 
       7     H     3s // 1s 
       8     H     3s // 1s 
       9     H     3s // 1s 
      10     H     3s // 1s 
      11     C     6s 3p // 2s 1p 
      12     C     6s 3p // 2s 1p 
      13     H     3s // 1s 
      14     H     3s // 1s 
      15     C     6s 3p // 2s 1p 
      16     C     6s 3p // 2s 1p 
      17     H     3s // 1s 
      18     H     3s // 1s 
      19     H     3s // 1s 
      20     H     3s // 1s 

  ==> AO Basis Functions <==

    [ STO-3G ]
    spherical
    ****
    C   1
    S   3 1.00
                        71.61683700           0.15432897
                        13.04509600           0.53532814
                         3.53051220           0.44463454
    S   3 1.00
                         2.94124940          -0.09996723
                         0.68348310           0.39951283
                         0.22228990           0.70011547
    P   3 1.00
                         2.94124940           0.15591627
                         0.68348310           0.60768372
                         0.22228990           0.39195739
    ****
    C   3
    S   3 1.00
                        71.61683700           0.15432897
                        13.04509600           0.53532814
                         3.53051220           0.44463454
    S   3 1.00
                         2.94124940          -0.09996723
                         0.68348310           0.39951283
                         0.22228990           0.70011547
    P   3 1.00
                         2.94124940           0.15591627
                         0.68348310           0.60768372
                         0.22228990           0.39195739
    ****
    C   5
    S   3 1.00
                        71.61683700           0.15432897
                        13.04509600           0.53532814
                         3.53051220           0.44463454
    S   3 1.00
                         2.94124940          -0.09996723
                         0.68348310           0.39951283
                         0.22228990           0.70011547
    P   3 1.00
                         2.94124940           0.15591627
                         0.68348310           0.60768372
                         0.22228990           0.39195739
    ****
    H   7
    S   3 1.00
                         3.42525091           0.15432897
                         0.62391373           0.53532814
                         0.16885540           0.44463454
    ****
    H   9
    S   3 1.00
                         3.42525091           0.15432897
                         0.62391373           0.53532814
                         0.16885540           0.44463454
    ****
    C  11
    S   3 1.00
                        71.61683700           0.15432897
                        13.04509600           0.53532814
                         3.53051220           0.44463454
    S   3 1.00
                         2.94124940          -0.09996723
                         0.68348310           0.39951283
                         0.22228990           0.70011547
    P   3 1.00
                         2.94124940           0.15591627
                         0.68348310           0.60768372
                         0.22228990           0.39195739
    ****
    H  13
    S   3 1.00
                         3.42525091           0.15432897
                         0.62391373           0.53532814
                         0.16885540           0.44463454
    ****
    C  15
    S   3 1.00
                        71.61683700           0.15432897
                        13.04509600           0.53532814
                         3.53051220           0.44463454
    S   3 1.00
                         2.94124940          -0.09996723
                         0.68348310           0.39951283
                         0.22228990           0.70011547
    P   3 1.00
                         2.94124940           0.15591627
                         0.68348310           0.60768372
                         0.22228990           0.39195739
    ****
    H  17
    S   3 1.00
                         3.42525091           0.15432897
                         0.62391373           0.53532814
                         0.16885540           0.44463454
    ****
    H  19
    S   3 1.00
                         3.42525091           0.15432897
                         0.62391373           0.53532814
                         0.16885540           0.44463454
    ****

  ==> Pre-Iterations <==

   -------------------------------------------------------
    Irrep   Nso     Nmo     Nalpha   Nbeta   Ndocc  Nsocc
   -------------------------------------------------------
     Ag        25      25       0       0       0       0
     Bg         5       5       0       0       0       0
     Au         5       5       0       0       0       0
     Bu        25      25       0       0       0       0
   -------------------------------------------------------
    Total      60      60      35      34      34       1
   -------------------------------------------------------

  ==> Integral Setup <==

  ==> DFJK: Density-Fitted J/K Matrices <==

    J tasked:                  Yes
    K tasked:                  Yes
    wK tasked:                  No
    OpenMP threads:              1
    Integrals threads:           1
    Memory (MB):               183
    Algorithm:                Core
    Integral Cache:           NONE
    Schwarz Cutoff:          1E-12
    Fitting Condition:       1E-12

   => Auxiliary Basis Set <=

  Basis Set: 
    Number of shells: 240
    Number of basis function: 700
    Number of Cartesian functions: 810
    Spherical Harmonics?: true
    Max angular momentum: 3

  Minimum eigenvalue in the overlap matrix is 1.8147107108E-01.
  Using Symmetric Orthogonalization.
  SCF Guess: Generalized Wolfsberg-Helmholtz.

  ==> Iterations <==

                           Total Energy        Delta E     RMS |[F,P]|

    Occupation by irrep:
             Ag    Bg    Au    Bu 
    DOCC [    15,    2,    2,   15 ]
    SOCC [     0,    1,    0,    0 ]

   @DF-ROHF iter   1:  -378.13927320670109   -3.78139e+02   4.24526e-02 
   @DF-ROHF iter   2:  -379.35011466776189   -1.21084e+00   1.13898e-02 DIIS
   @DF-ROHF iter   3:  -379.50165731870698   -1.51543e-01   6.24900e-03 DIIS
   @DF-ROHF iter   4:  -379.56794584505792   -6.62885e-02   5.89699e-04 DIIS
   @DF-ROHF iter   5:  -379.56928685718935   -1.34101e-03   2.77869e-04 DIIS
   @DF-ROHF iter   6:  -379.56969243462026   -4.05577e-04   1.63478e-04 DIIS
   @DF-ROHF iter   7:  -379.56987188326639   -1.79449e-04   5.97044e-05 DIIS
   @DF-ROHF iter   8:  -379.56990007646050   -2.81932e-05   1.08673e-05 DIIS
   @DF-ROHF iter   9:  -379.56990063658236   -5.60122e-07   7.56736e-06 DIIS
   @DF-ROHF iter  10:  -379.56990112599897   -4.89417e-07   3.18825e-06 DIIS
   @DF-ROHF iter  11:  -379.56990126956612   -1.43567e-07   7.27095e-07 DIIS

  ==> Post-Iterations <==

    Orbital Energies (a.u.)
    -----------------------

    Doubly Occupied:                                                      

       1Bu   -11.297945     1Ag   -11.297894     2Bu   -11.249358  
       2Ag   -11.249248     3Bu   -11.248786     3Ag   -11.248749  
       4Ag   -11.237429     4Bu   -11.237429     5Bu   -11.219063  
       5Ag   -11.219062     6Ag    -1.307073     6Bu    -1.223647  
       7Ag    -1.166696     7Bu    -1.156670     8Bu    -1.110584  
       8Ag    -0.998265     9Ag    -0.968666     9Bu    -0.913781  
      10Ag    -0.892710    11Ag    -0.819400    10Bu    -0.801043  
      11Bu    -0.767866    12Bu    -0.755503    12Ag    -0.738969  
      13Bu    -0.726397    14Bu    -0.695878    13Ag    -0.679434  
       1Au    -0.655501    15Bu    -0.633376    14Ag    -0.627585  
      15Ag    -0.612542     1Bg    -0.552502     2Bg    -0.481998  
       2Au    -0.480798  

    Singly Occupied:                                                      

       3Bg    -0.311805  

    Virtual:                                                              

       3Au     0.005272     4Au     0.076165     4Bg     0.127046  
       5Au     0.207346     5Bg     0.316012    16Ag     0.373760  
      16Bu     0.385378    17Bu     0.423245    17Ag     0.439431  
      18Ag     0.463308    18Bu     0.465812    19Bu     0.492805  
      19Ag     0.492908    20Bu     0.520009    20Ag     0.546148  
      21Ag     0.589711    21Bu     0.616965    22Ag     0.657880  
      22Bu     0.683953    23Bu     0.724565    23Ag     0.739244  
      24Ag     0.789811    24Bu     0.822386    25Ag     0.892240  
      25Bu     0.902482  

    Final Occupation by Irrep:
             Ag    Bg    Au    Bu 
    DOCC [    15,    2,    2,   15 ]
    SOCC [     0,    1,    0,    0 ]

  Energy converged.

  @DF-ROHF Final Energy:  -379.56990126956612

   => Energetics <=

    Nuclear Repulsion Energy =            445.9369781142434022
    One-Electron Energy =               -1386.0237507816975722
    Two-Electron Energy =                 560.5168713978880533
    DFT Exchange-Correlation Energy =       0.0000000000000000
    Empirical Dispersion Energy =           0.0000000000000000
    PCM Polarization Energy =               0.0000000000000000
    EFP Energy =                            0.0000000000000000
    Total Energy =                       -379.5699012695661168


  Saving occupied orbitals to File 180.

  ==> Molecular Orbitals <==

                 1            2            3            4            5

    1    0.7016574    0.7016899    0.0003548    0.0000404    0.0007531
    2    0.0249709    0.0248594    0.0031176    0.0056483    0.0064633
    3    0.0000000    0.0000000    0.0000000    0.0000000    0.0000000
    4    0.0008747    0.0006529    0.0004727    0.0016746    0.0023851
    5   -0.0000440   -0.0000036   -0.0034739   -0.0023405    0.0012322
    6   -0.7016574    0.7016899   -0.0003548    0.0000404   -0.0007531
    7   -0.0249709    0.0248594   -0.0031176    0.0056483   -0.0064633
    8    0.0000000    0.0000000    0.0000000    0.0000000    0.0000000
    9    0.0008747   -0.0006529    0.0004727   -0.0016746    0.0023851
   10   -0.0000440    0.0000036   -0.0034739    0.0023405    0.0012322
   11    0.0011803    0.0006608    0.2327212   -0.1583244   -0.6618976
   12   -0.0049636   -0.0046652    0.0035982   -0.0010244   -0.0255560
   13    0.0000000    0.0000000    0.0000000    0.0000000    0.0000000
   14    0.0019365    0.0020082   -0.0027298    0.0029978   -0.0013231
   15    0.0024260    0.0024350    0.0002098   -0.0004389    0.0011441
   16   -0.0011803    0.0006608   -0.2327212   -0.1583244    0.6618976
   17    0.0049636   -0.0046652   -0.0035982   -0.0010244    0.0255560
   18    0.0000000    0.0000000    0.0000000    0.0000000    0.0000000
   19    0.0019365   -0.0020082   -0.0027298   -0.0029978   -0.0013231
   20    0.0024260   -0.0024350    0.0002098    0.0004389    0.0011441
   21   -0.0011736    0.0006770    0.6620663   -0.6836989    0.2322298
   22    0.0049286   -0.0046139    0.0222166   -0.0234675    0.0131830
   23    0.0000000    0.0000000    0.0000000    0.0000000    0.0000000
   24    0.0010582   -0.0011349    0.0004192   -0.0002747   -0.0030806
   25   -0.0028947    0.0029118   -0.0009267    0.0006734    0.0000967
   26    0.0011736    0.0006770   -0.6620663   -0.6836989   -0.2322298
   27   -0.0049286   -0.0046139   -0.0222166   -0.0234675   -0.0131830
   28    0.0000000    0.0000000    0.0000000    0.0000000    0.0000000
   29    0.0010582    0.0011349    0.0004192    0.0002747   -0.0030806
   30   -0.0028947   -0.0029118   -0.0009267   -0.0006734    0.0000967
   31    0.0000935   -0.0000045   -0.0014099    0.0010647    0.0043723
   32   -0.0000935   -0.0000045    0.0014099    0.0010647   -0.0043723
   33   -0.0000869   -0.0000091   -0.0043219    0.0045909   -0.0016435
   34    0.0000869   -0.0000091    0.0043219    0.0045909    0.0016435
   35    0.0005014   -0.0005370   -0.0001025    0.0005797   -0.0004010
   36    0.0040683   -0.0041234    0.0001089   -0.0000960    0.0002318
   37    0.0000000    0.0000000    0.0000000    0.0000000    0.0000000
   38   -0.0028002    0.0028400   -0.0000625   -0.0000178   -0.0000559
   39    0.0005946   -0.0006021   -0.0000151   -0.0000356    0.0000653
   40   -0.0005014   -0.0005370    0.0001025    0.0005797    0.0004010
   41   -0.0040683   -0.0041234   -0.0001089   -0.0000960   -0.0002318
   42    0.0000000    0.0000000    0.0000000    0.0000000    0.0000000
   43   -0.0028002   -0.0028400   -0.0000625    0.0000178   -0.0000559
   44    0.0005946    0.0006021   -0.0000151    0.0000356    0.0000653
   45   -0.0000271    0.0000321   -0.0000125    0.0000622   -0.0000625
   46    0.0000271    0.0000321    0.0000125    0.0000622    0.0000625
   47    0.0000638   -0.0000640   -0.0007845    0.0010571   -0.0004851
   48   -0.0001370    0.0001360   -0.0000556    0.0001077   -0.0000862
   49    0.0000000    0.0000000    0.0000000    0.0000000    0.0000000
   50    0.0000671   -0.0000700    0.0000441   -0.0000748    0.0000552
   51   -0.0000569    0.0000577   -0.0000428    0.0000332   -0.0000055
   52   -0.0000638   -0.0000640    0.0007845    0.0010571    0.0004851
   53    0.0001370    0.0001360    0.0000556    0.0001077    0.0000862
   54    0.0000000    0.0000000    0.0000000    0.0000000    0.0000000
   55    0.0000671    0.0000700    0.0000441    0.0000748    0.0000552
   56   -0.0000569   -0.0000577   -0.0000428   -0.0000332   -0.0000055
   57    0.0001031   -0.0000980    0.0000999   -0.0001078    0.0000485
   58   -0.0001031   -0.0000980   -0.0000999   -0.0001078   -0.0000485
   59    0.0000226   -0.0000219   -0.0000137    0.0000136   -0.0000050
   60   -0.0000226   -0.0000219    0.0000137    0.0000136    0.0000050

 Ene   -11.2979455  -11.2978938  -11.2493576  -11.2492479  -11.2487856
 Sym            Bu           Ag           Bu           Ag           Bu
 Occ             2            2            2            2            2


                 6            7            8            9           10

    1    0.0000101    0.0000931   -0.0000911    0.0011742    0.0012182
    2    0.0035165    0.0000860   -0.0000868   -0.0041876   -0.0041780
    3    0.0000000    0.0000000    0.0000000    0.0000000    0.0000000
    4    0.0017864    0.0000062   -0.0000053    0.0029655    0.0029446
    5    0.0029976    0.0000320   -0.0000325   -0.0004485   -0.0004441
    6    0.0000101    0.0000931    0.0000911   -0.0011742    0.0012182
    7    0.0035165    0.0000860    0.0000868    0.0041876   -0.0041780
    8    0.0000000    0.0000000    0.0000000    0.0000000    0.0000000
    9   -0.0017864   -0.0000062   -0.0000053    0.0029655   -0.0029446
   10   -0.0029976   -0.0000320   -0.0000325   -0.0004485    0.0004441
   11   -0.6835684    0.0004613   -0.0002099    0.0003570    0.0006211
   12   -0.0255812   -0.0000649    0.0000066    0.0001546    0.0000740
   13    0.0000000    0.0000000    0.0000000    0.0000000    0.0000000
   14   -0.0009502    0.0000141   -0.0000619    0.0000140   -0.0000382
   15    0.0008334    0.0000205   -0.0000095   -0.0000290    0.0000354
   16   -0.6835684    0.0004613    0.0002099   -0.0003570    0.0006211
   17   -0.0255812   -0.0000649   -0.0000066   -0.0001546    0.0000740
   18    0.0000000    0.0000000    0.0000000    0.0000000    0.0000000
   19    0.0009502   -0.0000141   -0.0000619    0.0000140    0.0000382
   20   -0.0008334   -0.0000205   -0.0000095   -0.0000290   -0.0000354
   21    0.1577366    0.0010139    0.0009242   -0.0002189    0.0004643
   22    0.0103110   -0.0000037    0.0000072   -0.0002055    0.0001296
   23    0.0000000    0.0000000    0.0000000    0.0000000    0.0000000
   24   -0.0031909   -0.0000798   -0.0000898    0.0000019    0.0000652
   25    0.0002571    0.0000025    0.0000053    0.0000201    0.0000207
   26    0.1577366    0.0010139   -0.0009242    0.0002189    0.0004643
   27    0.0103110   -0.0000037   -0.0000072    0.0002055    0.0001296
   28    0.0000000    0.0000000    0.0000000    0.0000000    0.0000000
   29    0.0031909    0.0000798   -0.0000898    0.0000019   -0.0000652
   30   -0.0002571   -0.0000025    0.0000053    0.0000201   -0.0000207
   31    0.0045589   -0.0000066    0.0000042   -0.0000247   -0.0000364
   32    0.0045589   -0.0000066   -0.0000042    0.0000247   -0.0000364
   33   -0.0010496    0.0000480    0.0000479    0.0001178   -0.0001321
   34   -0.0010496    0.0000480   -0.0000479   -0.0001178   -0.0001321
   35    0.0004747    0.0130787    0.0130744   -0.7015186    0.7015188
   36   -0.0000598   -0.0049257   -0.0049259   -0.0253171    0.0253095
   37    0.0000000    0.0000000    0.0000000    0.0000000    0.0000000
   38   -0.0000265   -0.0023411   -0.0023415   -0.0006185    0.0006247
   39   -0.0000066   -0.0021541   -0.0021545   -0.0007911    0.0007900
   40    0.0004747    0.0130787   -0.0130744    0.7015186    0.7015188
   41   -0.0000598   -0.0049257    0.0049259    0.0253171    0.0253095
   42    0.0000000    0.0000000    0.0000000    0.0000000    0.0000000
   43    0.0000265    0.0023411   -0.0023415   -0.0006185   -0.0006247
   44    0.0000066    0.0021541   -0.0021545   -0.0007911   -0.0007900
   45    0.0000485   -0.0000304   -0.0000301    0.0047075   -0.0047077
   46    0.0000485   -0.0000304    0.0000301   -0.0047075   -0.0047077
   47    0.0002040    0.7016164    0.7016168    0.0126311   -0.0126361
   48    0.0000406    0.0248163    0.0248165    0.0058791   -0.0058793
   49    0.0000000    0.0000000    0.0000000    0.0000000    0.0000000
   50   -0.0000370   -0.0008097   -0.0008099   -0.0024526    0.0024526
   51   -0.0000115   -0.0007095   -0.0007095   -0.0021416    0.0021420
   52    0.0002040    0.7016164   -0.7016168   -0.0126311   -0.0126361
   53    0.0000406    0.0248163   -0.0248165   -0.0058791   -0.0058793
   54    0.0000000    0.0000000    0.0000000    0.0000000    0.0000000
   55    0.0000370    0.0008097   -0.0008099   -0.0024526   -0.0024526
   56    0.0000115    0.0007095   -0.0007095   -0.0021416   -0.0021420
   57    0.0000348   -0.0046554   -0.0046554   -0.0001540    0.0001540
   58    0.0000348   -0.0046554    0.0046554    0.0001540    0.0001540
   59    0.0000026   -0.0046358   -0.0046358   -0.0001602    0.0001602
   60    0.0000026   -0.0046358    0.0046358    0.0001602    0.0001602

 Ene   -11.2487487  -11.2374293  -11.2374292  -11.2190626  -11.2190622
 Sym            Ag           Ag           Bu           Bu           Ag
 Occ             2            2            2            2            2


                11           12           13           14           15

    1    0.1099584    0.1163047    0.0120440    0.0104084    0.0883441
    2   -0.2876144   -0.3177898   -0.0371565   -0.0291016   -0.2504073
    3    0.0000000    0.0000000    0.0000000    0.0000000    0.0000000
    4   -0.0496397    0.0217998    0.1051643   -0.0251830   -0.0796527
    5    0.0078174   -0.0005707   -0.0103201   -0.1364815    0.0203538
    6    0.1099584   -0.1163047    0.0120440   -0.0104084   -0.0883441
    7   -0.2876144    0.3177898   -0.0371565    0.0291016    0.2504073
    8    0.0000000    0.0000000    0.0000000    0.0000000    0.0000000
    9    0.0496397    0.0217998   -0.1051643   -0.0251830   -0.0796527
   10   -0.0078174   -0.0005707    0.0103201   -0.1364815    0.0203538
   11    0.0964534    0.0432491   -0.0423543    0.1308708    0.0395499
   12   -0.2450255   -0.1136993    0.1133078   -0.3578497   -0.1094952
   13    0.0000000    0.0000000    0.0000000    0.0000000    0.0000000
   14   -0.0142427    0.0657420    0.0378539   -0.0591997    0.0830639
   15    0.0605218    0.0370063   -0.0167736    0.0132227    0.0409907
   16    0.0964534   -0.0432491   -0.0423543   -0.1308708   -0.0395499
   17   -0.2450255    0.1136993    0.1133078    0.3578497    0.1094952
   18    0.0000000    0.0000000    0.0000000    0.0000000    0.0000000
   19    0.0142427    0.0657420   -0.0378539   -0.0591997    0.0830639
   20   -0.0605218    0.0370063    0.0167736    0.0132227    0.0409907
   21    0.0967280   -0.0487865   -0.0373827    0.1213956   -0.0648004
   22   -0.2460847    0.1290031    0.0992909   -0.3322242    0.1798378
   23    0.0000000    0.0000000    0.0000000    0.0000000    0.0000000
   24    0.0322060    0.0500799   -0.0484938    0.0703908    0.0425312
   25    0.0529838   -0.0559948   -0.0017293   -0.0184950   -0.0587403
   26    0.0967280    0.0487865   -0.0373827   -0.1213956    0.0648004
   27   -0.2460847   -0.1290031    0.0992909    0.3322242   -0.1798378
   28    0.0000000    0.0000000    0.0000000    0.0000000    0.0000000
   29   -0.0322060    0.0500799    0.0484938    0.0703908    0.0425312
   30   -0.0529838   -0.0559948    0.0017293   -0.0184950   -0.0587403
   31   -0.0380835   -0.0258525    0.0195562   -0.0862016   -0.0276430
   32   -0.0380835    0.0258525    0.0195562    0.0862016    0.0276430
   33   -0.0390653    0.0304563    0.0138215   -0.0817540    0.0431804
   34   -0.0390653   -0.0304563    0.0138215    0.0817540   -0.0431804
   35    0.0422643   -0.1031040    0.1205771   -0.0000003    0.0686628
   36   -0.1078226    0.2688267   -0.3193567    0.0004579   -0.1837453
   37    0.0000000    0.0000000    0.0000000    0.0000000    0.0000000
   38    0.0289392   -0.0204764   -0.0485708   -0.0137681   -0.1173317
   39   -0.0135572    0.0379830   -0.0557204   -0.0179000   -0.0491235
   40    0.0422643    0.1031040    0.1205771    0.0000003   -0.0686628
   41   -0.1078226   -0.2688267   -0.3193567   -0.0004579    0.1837453
   42    0.0000000    0.0000000    0.0000000    0.0000000    0.0000000
   43   -0.0289392   -0.0204764    0.0485708   -0.0137681   -0.1173317
   44    0.0135572    0.0379830    0.0557204   -0.0179000   -0.0491235
   45   -0.0183236    0.0528572   -0.0693632    0.0071765   -0.0444059
   46   -0.0183236   -0.0528572   -0.0693632   -0.0071765    0.0444059
   47    0.0194027   -0.0686094    0.1154266    0.0108089    0.1144779
   48   -0.0501434    0.1810814   -0.3105094   -0.0288725   -0.3150779
   49    0.0000000    0.0000000    0.0000000    0.0000000    0.0000000
   50    0.0177040   -0.0497622    0.0637315    0.0064520    0.0377448
   51    0.0107660   -0.0345347    0.0519354   -0.0005276    0.0421733
   52    0.0194027    0.0686094    0.1154266   -0.0108089   -0.1144779
   53   -0.0501434   -0.1810814   -0.3105094    0.0288725    0.3150779
   54    0.0000000    0.0000000    0.0000000    0.0000000    0.0000000
   55   -0.0177040   -0.0497622   -0.0637315    0.0064520    0.0377448
   56   -0.0107660   -0.0345347   -0.0519354   -0.0005276    0.0421733
   57   -0.0097171    0.0380757   -0.0694150   -0.0097777   -0.0760012
   58   -0.0097171   -0.0380757   -0.0694150    0.0097777    0.0760012
   59   -0.0068829    0.0318767   -0.0653446   -0.0054902   -0.0798193
   60   -0.0068829   -0.0318767   -0.0653446    0.0054902    0.0798193

 Ene    -1.3070726   -1.2236475   -1.1666957   -1.1566697   -1.1105838
 Sym            Ag           Bu           Ag           Bu           Bu
 Occ             2            2            2            2            2


                16           17           18           19           20

    1    0.0733477    0.0566483    0.0046872    0.0451494    0.0326206
    2   -0.2226163   -0.1742860   -0.0111400   -0.1393095   -0.1110976
    3    0.0000000    0.0000000    0.0000000    0.0000000    0.0000000
    4    0.0668863    0.0726408   -0.1706555   -0.1714211    0.1166048
    5   -0.1447252    0.1983372    0.0627816   -0.0047424   -0.0479007
    6    0.0733477    0.0566483   -0.0046872    0.0451494    0.0326206
    7   -0.2226163   -0.1742860    0.0111400   -0.1393095   -0.1110976
    8    0.0000000    0.0000000    0.0000000    0.0000000    0.0000000
    9   -0.0668863   -0.0726408   -0.1706555    0.1714211   -0.1166048
   10    0.1447252   -0.1983372    0.0627816    0.0047424    0.0479007
   11    0.0086970   -0.1103750    0.0478276   -0.0151401    0.0130395
   12   -0.0263116    0.3297432   -0.1480984    0.0529290   -0.0504042
   13    0.0000000    0.0000000    0.0000000    0.0000000    0.0000000
   14    0.1762137   -0.0273808    0.0023033    0.0760406    0.1461089
   15    0.0352458    0.0614070    0.0102023    0.1888911   -0.1274985
   16    0.0086970   -0.1103750   -0.0478276   -0.0151401    0.0130395
   17   -0.0263116    0.3297432    0.1480984    0.0529290   -0.0504042
   18    0.0000000    0.0000000    0.0000000    0.0000000    0.0000000
   19   -0.1762137    0.0273808    0.0023033   -0.0760406   -0.1461089
   20   -0.0352458   -0.0614070    0.0102023   -0.1888911    0.1274985
   21   -0.0889955    0.0521231   -0.0305390   -0.0477029   -0.0145064
   22    0.2601938   -0.1562562    0.0940915    0.1555051    0.0402226
   23    0.0000000    0.0000000    0.0000000    0.0000000    0.0000000
   24   -0.0214113   -0.1782418    0.0794404    0.0315832   -0.1438980
   25    0.0590024    0.0951935   -0.0399552    0.1998169   -0.0826306
   26   -0.0889955    0.0521231    0.0305390   -0.0477029   -0.0145064
   27    0.2601938   -0.1562562   -0.0940915    0.1555051    0.0402226
   28    0.0000000    0.0000000    0.0000000    0.0000000    0.0000000
   29    0.0214113    0.1782418    0.0794404   -0.0315832    0.1438980
   30   -0.0590024   -0.0951935   -0.0399552   -0.1998169    0.0826306
   31   -0.0236410    0.1496939   -0.0454715    0.1094257   -0.1268033
   32   -0.0236410    0.1496939    0.0454715    0.1094257   -0.1268033
   33    0.1082453   -0.0734522    0.0512907    0.1594989   -0.0935853
   34    0.1082453   -0.0734522   -0.0512907    0.1594989   -0.0935853
   35    0.0415662    0.0062155    0.0958544   -0.0590198   -0.0507980
   36   -0.1255134   -0.0204388   -0.2952950    0.1816617    0.1624385
   37    0.0000000    0.0000000    0.0000000    0.0000000    0.0000000
   38    0.1305214    0.0864064    0.0697052   -0.0266841    0.1723289
   39    0.0715747   -0.0281498    0.1033233   -0.0606589   -0.1046791
   40    0.0415662    0.0062155   -0.0958544   -0.0590198   -0.0507980
   41   -0.1255134   -0.0204388    0.2952950    0.1816617    0.1624385
   42    0.0000000    0.0000000    0.0000000    0.0000000    0.0000000
   43   -0.1305214   -0.0864064    0.0697052    0.0266841   -0.1723289
   44   -0.0715747    0.0281498    0.1033233    0.0606589    0.1046791
   45   -0.0607783    0.0222611   -0.1522431    0.1008433    0.1546200
   46   -0.0607783    0.0222611    0.1522431    0.1008433    0.1546200
   47   -0.0779521   -0.0454775   -0.0844043    0.0554372    0.0231884
   48    0.2277439    0.1360660    0.2639168   -0.1762051   -0.0850902
   49    0.0000000    0.0000000    0.0000000    0.0000000    0.0000000
   50    0.0216634    0.0371954    0.0900279   -0.0775370   -0.0204615
   51    0.0229643   -0.0109166    0.1120736   -0.0701863   -0.2216349
   52   -0.0779521   -0.0454775    0.0844043    0.0554372    0.0231884
   53    0.2277439    0.1360660   -0.2639168   -0.1762051   -0.0850902
   54    0.0000000    0.0000000    0.0000000    0.0000000    0.0000000
   55   -0.0216634   -0.0371954    0.0900279    0.0775370    0.0204615
   56   -0.0229643    0.0109166    0.1120736    0.0701863    0.2216349
   57    0.0880132    0.0335202    0.1539429   -0.0940231   -0.1838472
   58    0.0880132    0.0335202   -0.1539429   -0.0940231   -0.1838472
   59    0.0807869    0.0645549    0.1239110   -0.0949399   -0.0052042
   60    0.0807869    0.0645549   -0.1239110   -0.0949399   -0.0052042

 Ene    -0.9982648   -0.9686665   -0.9137808   -0.8927105   -0.8193997
 Sym            Ag           Ag           Bu           Ag           Ag
 Occ             2            2            2            2            2


                21           22           23           24           25

    1    0.0193359    0.0644715    0.0191563    0.0171472    0.0020673
    2   -0.0693893   -0.2255541   -0.0654288   -0.0577012   -0.0067649
    3    0.0000000    0.0000000    0.0000000    0.0000000    0.0000000
    4    0.1398294   -0.0147221   -0.1700506   -0.0094798   -0.0999499
    5    0.1923713   -0.1131071    0.2103912   -0.0128850   -0.0763860
    6   -0.0193359   -0.0644715   -0.0191563    0.0171472   -0.0020673
    7    0.0693893    0.2255541    0.0654288   -0.0577012    0.0067649
    8    0.0000000    0.0000000    0.0000000    0.0000000    0.0000000
    9    0.1398294   -0.0147221   -0.1700506    0.0094798   -0.0999499
   10    0.1923713   -0.1131071    0.2103912    0.0128850   -0.0763860
   11   -0.0157885   -0.0508529   -0.0044414   -0.0216602    0.0196739
   12    0.0542457    0.1768007    0.0180560    0.0732037   -0.0598797
   13    0.0000000    0.0000000    0.0000000    0.0000000    0.0000000
   14   -0.2317049    0.0536878   -0.0905144    0.0812039   -0.1510503
   15   -0.0167799    0.2337394    0.0035257   -0.0041759    0.3162155
   16    0.0157885    0.0508529    0.0044414   -0.0216602   -0.0196739
   17   -0.0542457   -0.1768007   -0.0180560    0.0732037    0.0598797
   18    0.0000000    0.0000000    0.0000000    0.0000000    0.0000000
   19   -0.2317049    0.0536878   -0.0905144   -0.0812039   -0.1510503
   20   -0.0167799    0.2337394    0.0035257    0.0041759    0.3162155
   21    0.0347745    0.0489715   -0.0059933    0.0175264    0.0132571
   22   -0.1143775   -0.1711712    0.0152319   -0.0651451   -0.0408380
   23    0.0000000    0.0000000    0.0000000    0.0000000    0.0000000
   24    0.1515168   -0.1862909    0.0088737   -0.1353800    0.2230021
   25   -0.1258213   -0.1041444   -0.2694458   -0.0380769    0.1743320
   26   -0.0347745   -0.0489715    0.0059933    0.0175264   -0.0132571
   27    0.1143775    0.1711712   -0.0152319   -0.0651451    0.0408380
   28    0.0000000    0.0000000    0.0000000    0.0000000    0.0000000
   29    0.1515168   -0.1862909    0.0088737    0.1353800    0.2230021
   30   -0.1258213   -0.1041444   -0.2694458    0.0380769    0.1743320
   31    0.0719494    0.2278935    0.0320617    0.0040047    0.2486320
   32   -0.0719494   -0.2278935   -0.0320617    0.0040047   -0.2486320
   33   -0.0467143   -0.2219212   -0.1622666   -0.1092771    0.1994745
   34    0.0467143    0.2219212    0.1622666   -0.1092771   -0.1994745
   35   -0.0089064    0.0153874   -0.0012426   -0.0219094   -0.0045718
   36    0.0252136   -0.0449015    0.0012505    0.0620855    0.0127693
   37    0.0000000    0.0000000    0.0000000    0.0000000    0.0000000
   38   -0.0850920   -0.1261579    0.1730536    0.0540040    0.0844563
   39    0.1942350    0.0019921   -0.0173082    0.2509297   -0.0095449
   40    0.0089064   -0.0153874    0.0012426   -0.0219094    0.0045718
   41   -0.0252136    0.0449015   -0.0012505    0.0620855   -0.0127693
   42    0.0000000    0.0000000    0.0000000    0.0000000    0.0000000
   43   -0.0850920   -0.1261579    0.1730536   -0.0540040    0.0844563
   44    0.1942350    0.0019921   -0.0173082   -0.2509297   -0.0095449
   45   -0.1360587   -0.0524396    0.0392924   -0.1469441    0.0185870
   46    0.1360587    0.0524396   -0.0392924   -0.1469441   -0.0185870
   47    0.0126622   -0.0148489   -0.0000943    0.0015200    0.0044585
   48   -0.0459209    0.0577186   -0.0081498   -0.0185741   -0.0192757
   49    0.0000000    0.0000000    0.0000000    0.0000000    0.0000000
   50   -0.1810485    0.0848979    0.0697588   -0.3478882   -0.0076013
   51    0.0705640    0.1027520   -0.2372102    0.0172102   -0.0970573
   52   -0.0126622    0.0148489    0.0000943    0.0015200   -0.0044585
   53    0.0459209   -0.0577186    0.0081498   -0.0185741    0.0192757
   54    0.0000000    0.0000000    0.0000000    0.0000000    0.0000000
   55   -0.1810485    0.0848979    0.0697588    0.3478882   -0.0076013
   56    0.0705640    0.1027520   -0.2372102   -0.0172102   -0.0970573
   57    0.0504826    0.0743859   -0.1950786    0.0429858   -0.0709127
   58   -0.0504826   -0.0743859    0.1950786    0.0429858    0.0709127
   59   -0.1465196    0.0600277    0.0955703   -0.2592198    0.0075630
   60    0.1465196   -0.0600277   -0.0955703   -0.2592198   -0.0075630

 Ene    -0.8010429   -0.7678659   -0.7555029   -0.7389694   -0.7263969
 Sym            Bu           Bu           Bu           Ag           Bu
 Occ             2            2            2            2            2


                26           27           28           29           30

    1    0.0075643    0.0193113    0.0000000    0.0152111    0.0031158
    2   -0.0283297   -0.0700365    0.0000000   -0.0639209   -0.0175987
    3    0.0000000    0.0000000    0.3267335    0.0000000    0.0000000
    4    0.1830213   -0.0459389    0.0000000    0.2152066    0.2224462
    5    0.1258117    0.1150001    0.0000000   -0.0866266    0.2283980
    6   -0.0075643    0.0193113    0.0000000   -0.0152111    0.0031158
    7    0.0283297   -0.0700365    0.0000000    0.0639209   -0.0175987
    8    0.0000000    0.0000000    0.3267335    0.0000000    0.0000000
    9    0.1830213    0.0459389    0.0000000    0.2152066   -0.2224462
   10    0.1258117   -0.1150001    0.0000000   -0.0866266   -0.2283980
   11   -0.0148947    0.0081083    0.0000000   -0.0040626   -0.0016369
   12    0.0538239   -0.0372522    0.0000000    0.0114944    0.0018078
   13    0.0000000    0.0000000    0.3039229    0.0000000    0.0000000
   14   -0.1893723    0.1585159    0.0000000    0.0460340   -0.2191027
   15   -0.0705801   -0.1538960    0.0000000   -0.0486489   -0.2092113
   16    0.0148947    0.0081083    0.0000000    0.0040626   -0.0016369
   17   -0.0538239   -0.0372522    0.0000000   -0.0114944    0.0018078
   18    0.0000000    0.0000000    0.3039229    0.0000000    0.0000000
   19   -0.1893723   -0.1585159    0.0000000    0.0460340    0.2191027
   20   -0.0705801    0.1538960    0.0000000   -0.0486489    0.2092113
   21    0.0081902   -0.0090047    0.0000000    0.0105048    0.0048427
   22   -0.0243391    0.0318815    0.0000000   -0.0369972   -0.0088765
   23    0.0000000    0.0000000    0.3052580    0.0000000    0.0000000
   24    0.1695587   -0.1541668    0.0000000   -0.0171671    0.1924931
   25   -0.0329408    0.0904021    0.0000000    0.1212621    0.1946003
   26   -0.0081902   -0.0090047    0.0000000   -0.0105048    0.0048427
   27    0.0243391    0.0318815    0.0000000    0.0369972   -0.0088765
   28    0.0000000    0.0000000    0.3052580    0.0000000    0.0000000
   29    0.1695587    0.1541668    0.0000000   -0.0171671   -0.1924931
   30   -0.0329408   -0.0904021    0.0000000    0.1212621   -0.1946003
   31    0.0184877   -0.1818066    0.0000000   -0.0363355   -0.1171989
   32   -0.0184877   -0.1818066    0.0000000    0.0363355   -0.1171989
   33    0.0498087    0.0125081    0.0000000    0.0385915    0.2712643
   34   -0.0498087    0.0125081    0.0000000   -0.0385915    0.2712643
   35    0.0037711   -0.0193721    0.0000000    0.0058509    0.0099739
   36    0.0031818    0.0800148    0.0000000   -0.0275969   -0.0450048
   37    0.0000000    0.0000000    0.1689771    0.0000000    0.0000000
   38   -0.1918961   -0.1170438    0.0000000   -0.1354411    0.1803416
   39   -0.2178890   -0.1991003    0.0000000    0.2447133    0.0160091
   40   -0.0037711   -0.0193721    0.0000000   -0.0058509    0.0099739
   41   -0.0031818    0.0800148    0.0000000    0.0275969   -0.0450048
   42    0.0000000    0.0000000    0.1689771    0.0000000    0.0000000
   43   -0.1918961    0.1170438    0.0000000   -0.1354411   -0.1803416
   44   -0.2178890    0.1991003    0.0000000    0.2447133   -0.0160091
   45    0.1349663    0.1731147    0.0000000   -0.2695025    0.0007366
   46   -0.1349663    0.1731147    0.0000000    0.2695025    0.0007366
   47    0.0127339    0.0103348    0.0000000   -0.0072924   -0.0068222
   48   -0.0278023   -0.0259637    0.0000000    0.0265016    0.0169431
   49    0.0000000    0.0000000    0.0954093    0.0000000    0.0000000
   50    0.2969026   -0.0250500    0.0000000    0.1387290   -0.1355553
   51    0.1069629    0.2879433    0.0000000   -0.2319471   -0.0574619
   52   -0.0127339    0.0103348    0.0000000    0.0072924   -0.0068222
   53    0.0278023   -0.0259637    0.0000000   -0.0265016    0.0169431
   54    0.0000000    0.0000000    0.0954093    0.0000000    0.0000000
   55    0.2969026    0.0250500    0.0000000    0.1387290    0.1355553
   56    0.1069629   -0.2879433    0.0000000   -0.2319471    0.0574619
   57    0.0387936    0.2393046    0.0000000   -0.2358155    0.0017610
   58   -0.0387936    0.2393046    0.0000000    0.2358155    0.0017610
   59    0.1909605   -0.1053605    0.0000000    0.2001213   -0.0963757
   60   -0.1909605   -0.1053605    0.0000000   -0.2001213   -0.0963757

 Ene    -0.6958784   -0.6794340   -0.6555013   -0.6333758   -0.6275852
 Sym            Bu           Ag           Au           Bu           Ag
 Occ             2            2            2            2            2


                31           32           33           34           35

    1    0.0130207    0.0000000    0.0000000    0.0000000    0.0000000
    2   -0.0590815    0.0000000    0.0000000    0.0000000    0.0000000
    3    0.0000000    0.2767723    0.0002101    0.0041306    0.4658534
    4    0.1969465    0.0000000    0.0000000    0.0000000    0.0000000
    5   -0.2083603    0.0000000    0.0000000    0.0000000    0.0000000
    6    0.0130207    0.0000000    0.0000000    0.0000000    0.0000000
    7   -0.0590815    0.0000000    0.0000000    0.0000000    0.0000000
    8    0.0000000   -0.2767723   -0.0002101    0.0041306   -0.4658534
    9   -0.1969465    0.0000000    0.0000000    0.0000000    0.0000000
   10    0.2083603    0.0000000    0.0000000    0.0000000    0.0000000
   11    0.0064044    0.0000000    0.0000000    0.0000000    0.0000000
   12   -0.0173431    0.0000000    0.0000000    0.0000000    0.0000000
   13    0.0000000    0.0841261    0.4596350    0.1834038    0.2326080
   14   -0.1356455    0.0000000    0.0000000    0.0000000    0.0000000
   15    0.1563596    0.0000000    0.0000000    0.0000000    0.0000000
   16    0.0064044    0.0000000    0.0000000    0.0000000    0.0000000
   17   -0.0173431    0.0000000    0.0000000    0.0000000    0.0000000
   18    0.0000000   -0.0841261   -0.4596350    0.1834038   -0.2326080
   19    0.1356455    0.0000000    0.0000000    0.0000000    0.0000000
   20   -0.1563596    0.0000000    0.0000000    0.0000000    0.0000000
   21   -0.0020873    0.0000000    0.0000000    0.0000000    0.0000000
   22    0.0056730    0.0000000    0.0000000    0.0000000    0.0000000
   23    0.0000000   -0.0854297    0.4616808    0.1828938   -0.2321553
   24    0.1490954    0.0000000    0.0000000    0.0000000    0.0000000
   25   -0.2074990    0.0000000    0.0000000    0.0000000    0.0000000
   26   -0.0020873    0.0000000    0.0000000    0.0000000    0.0000000
   27    0.0056730    0.0000000    0.0000000    0.0000000    0.0000000
   28    0.0000000    0.0854297   -0.4616808    0.1828938    0.2321553
   29   -0.1490954    0.0000000    0.0000000    0.0000000    0.0000000
   30    0.2074990    0.0000000    0.0000000    0.0000000    0.0000000
   31    0.2002967    0.0000000    0.0000000    0.0000000    0.0000000
   32    0.2002967    0.0000000    0.0000000    0.0000000    0.0000000
   33   -0.0504637    0.0000000    0.0000000    0.0000000    0.0000000
   34   -0.0504637    0.0000000    0.0000000    0.0000000    0.0000000
   35    0.0079341    0.0000000    0.0000000    0.0000000    0.0000000
   36   -0.0264063    0.0000000    0.0000000    0.0000000    0.0000000
   37    0.0000000   -0.4206267   -0.0027920   -0.4331568    0.1917853
   38    0.1754341    0.0000000    0.0000000    0.0000000    0.0000000
   39   -0.1826301    0.0000000    0.0000000    0.0000000    0.0000000
   40    0.0079341    0.0000000    0.0000000    0.0000000    0.0000000
   41   -0.0264063    0.0000000    0.0000000    0.0000000    0.0000000
   42    0.0000000    0.4206267    0.0027920   -0.4331568   -0.1917853
   43   -0.1754341    0.0000000    0.0000000    0.0000000    0.0000000
   44    0.1826301    0.0000000    0.0000000    0.0000000    0.0000000
   45    0.2166722    0.0000000    0.0000000    0.0000000    0.0000000
   46    0.2166722    0.0000000    0.0000000    0.0000000    0.0000000
   47    0.0039065    0.0000000    0.0000000    0.0000000    0.0000000
   48   -0.0173109    0.0000000    0.0000000    0.0000000    0.0000000
   49    0.0000000   -0.3258795    0.0009553   -0.3941413    0.3099844
   50   -0.1071821    0.0000000    0.0000000    0.0000000    0.0000000
   51    0.1365033    0.0000000    0.0000000    0.0000000    0.0000000
   52    0.0039065    0.0000000    0.0000000    0.0000000    0.0000000
   53   -0.0173109    0.0000000    0.0000000    0.0000000    0.0000000
   54    0.0000000    0.3258795   -0.0009553   -0.3941413   -0.3099844
   55    0.1071821    0.0000000    0.0000000    0.0000000    0.0000000
   56   -0.1365033    0.0000000    0.0000000    0.0000000    0.0000000
   57    0.1536814    0.0000000    0.0000000    0.0000000    0.0000000
   58    0.1536814    0.0000000    0.0000000    0.0000000    0.0000000
   59   -0.1469484    0.0000000    0.0000000    0.0000000    0.0000000
   60   -0.1469484    0.0000000    0.0000000    0.0000000    0.0000000

 Ene    -0.6125421   -0.5525023   -0.4819976   -0.4807980   -0.3118053
 Sym            Ag           Bg           Bg           Au           Bg
 Occ             2            2            2            2            1


                36           37           38           39           40

    1    0.0000000    0.0000000    0.0000000    0.0000000    0.0000000
    2    0.0000000    0.0000000    0.0000000    0.0000000    0.0000000
    3    0.5032502    0.0296193    0.0562703    0.4445158    0.5207062
    4    0.0000000    0.0000000    0.0000000    0.0000000    0.0000000
    5    0.0000000    0.0000000    0.0000000    0.0000000    0.0000000
    6    0.0000000    0.0000000    0.0000000    0.0000000    0.0000000
    7    0.0000000    0.0000000    0.0000000    0.0000000    0.0000000
    8    0.5032502    0.0296193   -0.0562703    0.4445158   -0.5207062
    9    0.0000000    0.0000000    0.0000000    0.0000000    0.0000000
   10    0.0000000    0.0000000    0.0000000    0.0000000    0.0000000
   11    0.0000000    0.0000000    0.0000000    0.0000000    0.0000000
   12    0.0000000    0.0000000    0.0000000    0.0000000    0.0000000
   13   -0.2402807   -0.5820145   -0.2450706   -0.1403661   -0.4684304
   14    0.0000000    0.0000000    0.0000000    0.0000000    0.0000000
   15    0.0000000    0.0000000    0.0000000    0.0000000    0.0000000
   16    0.0000000    0.0000000    0.0000000    0.0000000    0.0000000
   17    0.0000000    0.0000000    0.0000000    0.0000000    0.0000000
   18   -0.2402807   -0.5820145    0.2450706   -0.1403661    0.4684304
   19    0.0000000    0.0000000    0.0000000    0.0000000    0.0000000
   20    0.0000000    0.0000000    0.0000000    0.0000000    0.0000000
   21    0.0000000    0.0000000    0.0000000    0.0000000    0.0000000
   22    0.0000000    0.0000000    0.0000000    0.0000000    0.0000000
   23   -0.2823801    0.5541178    0.2388307   -0.1699352    0.4696427
   24    0.0000000    0.0000000    0.0000000    0.0000000    0.0000000
   25    0.0000000    0.0000000    0.0000000    0.0000000    0.0000000
   26    0.0000000    0.0000000    0.0000000    0.0000000    0.0000000
   27    0.0000000    0.0000000    0.0000000    0.0000000    0.0000000
   28   -0.2823801    0.5541178   -0.2388307   -0.1699352   -0.4696427
   29    0.0000000    0.0000000    0.0000000    0.0000000    0.0000000
   30    0.0000000    0.0000000    0.0000000    0.0000000    0.0000000
   31    0.0000000    0.0000000    0.0000000    0.0000000    0.0000000
   32    0.0000000    0.0000000    0.0000000    0.0000000    0.0000000
   33    0.0000000    0.0000000    0.0000000    0.0000000    0.0000000
   34    0.0000000    0.0000000    0.0000000    0.0000000    0.0000000
   35    0.0000000    0.0000000    0.0000000    0.0000000    0.0000000
   36    0.0000000    0.0000000    0.0000000    0.0000000    0.0000000
   37    0.1807011   -0.0059904   -0.4955604   -0.5460826    0.2965115
   38    0.0000000    0.0000000    0.0000000    0.0000000    0.0000000
   39    0.0000000    0.0000000    0.0000000    0.0000000    0.0000000
   40    0.0000000    0.0000000    0.0000000    0.0000000    0.0000000
   41    0.0000000    0.0000000    0.0000000    0.0000000    0.0000000
   42    0.1807011   -0.0059904    0.4955604   -0.5460826   -0.2965115
   43    0.0000000    0.0000000    0.0000000    0.0000000    0.0000000
   44    0.0000000    0.0000000    0.0000000    0.0000000    0.0000000
   45    0.0000000    0.0000000    0.0000000    0.0000000    0.0000000
   46    0.0000000    0.0000000    0.0000000    0.0000000    0.0000000
   47    0.0000000    0.0000000    0.0000000    0.0000000    0.0000000
   48    0.0000000    0.0000000    0.0000000    0.0000000    0.0000000
   49   -0.4178522   -0.0072235    0.5404222    0.4365435   -0.1879593
   50    0.0000000    0.0000000    0.0000000    0.0000000    0.0000000
   51    0.0000000    0.0000000    0.0000000    0.0000000    0.0000000
   52    0.0000000    0.0000000    0.0000000    0.0000000    0.0000000
   53    0.0000000    0.0000000    0.0000000    0.0000000    0.0000000
   54   -0.4178522   -0.0072235   -0.5404222    0.4365435    0.1879593
   55    0.0000000    0.0000000    0.0000000    0.0000000    0.0000000
   56    0.0000000    0.0000000    0.0000000    0.0000000    0.0000000
   57    0.0000000    0.0000000    0.0000000    0.0000000    0.0000000
   58    0.0000000    0.0000000    0.0000000    0.0000000    0.0000000
   59    0.0000000    0.0000000    0.0000000    0.0000000    0.0000000
   60    0.0000000    0.0000000    0.0000000    0.0000000    0.0000000

 Ene     0.0052724    0.0761647    0.1270458    0.2073464    0.3160123
 Sym            Au           Au           Bg           Au           Bg
 Occ             0            0            0            0            0


                41           42           43           44           45

    1    0.0697070    0.0372523    0.0559788    0.0471292    0.0690586
    2   -0.4211838   -0.2228616   -0.3305055   -0.2926719   -0.4287457
    3    0.0000000    0.0000000    0.0000000    0.0000000    0.0000000
    4    0.2849137    0.1514406    0.4711453   -0.0986289    0.1145263
    5   -0.0913403   -0.3290761    0.1338569   -0.1421975    0.3347448
    6    0.0697070   -0.0372523   -0.0559788    0.0471292    0.0690586
    7   -0.4211838    0.2228616    0.3305055   -0.2926719   -0.4287457
    8    0.0000000    0.0000000    0.0000000    0.0000000    0.0000000
    9   -0.2849137    0.1514406    0.4711453    0.0986289   -0.1145263
   10    0.0913403   -0.3290761    0.1338569    0.1421975   -0.3347448
   11    0.0267849   -0.0101246   -0.0214339   -0.0827498    0.0698893
   12   -0.1676666    0.0588410    0.1319198    0.5191102   -0.4361021
   13    0.0000000    0.0000000    0.0000000    0.0000000    0.0000000
   14    0.0534410    0.0164141    0.2721185   -0.1516106   -0.2351061
   15   -0.3022738   -0.3766806    0.1422112   -0.0467075   -0.0099757
   16    0.0267849    0.0101246    0.0214339   -0.0827498    0.0698893
   17   -0.1676666   -0.0588410   -0.1319198    0.5191102   -0.4361021
   18    0.0000000    0.0000000    0.0000000    0.0000000    0.0000000
   19   -0.0534410    0.0164141    0.2721185    0.1516106    0.2351061
   20    0.3022738   -0.3766806    0.1422112    0.0467075    0.0099757
   21    0.0458344    0.0169783    0.0088872   -0.0200679   -0.1256196
   22   -0.2835362   -0.1025485   -0.0515612    0.1301113    0.7871811
   23    0.0000000    0.0000000    0.0000000    0.0000000    0.0000000
   24   -0.1194459    0.0342800    0.3200560    0.2560473   -0.0040970
   25   -0.2122793   -0.3109874    0.2671213    0.1236748   -0.1098606
   26    0.0458344   -0.0169783   -0.0088872   -0.0200679   -0.1256196
   27   -0.2835362    0.1025485    0.0515612    0.1301113    0.7871811
   28    0.0000000    0.0000000    0.0000000    0.0000000    0.0000000
   29    0.1194459    0.0342800    0.3200560   -0.2560473    0.0040970
   30    0.2122793   -0.3109874    0.2671213   -0.1236748    0.1098606
   31    0.4163343    0.3389581   -0.1025733   -0.3175781    0.1713176
   32    0.4163343   -0.3389581    0.1025733   -0.3175781    0.1713176
   33    0.4318823    0.2804483   -0.4044145   -0.2910201   -0.2817322
   34    0.4318823   -0.2804483    0.4044145   -0.2910201   -0.2817322
   35   -0.0581562    0.0065241    0.0952043    0.0442326   -0.0310308
   36    0.3377869   -0.0404058   -0.5656628   -0.2697865    0.1909955
   37    0.0000000    0.0000000    0.0000000    0.0000000    0.0000000
   38   -0.3489060    0.2265491    0.3511570   -0.0962163   -0.2300907
   39    0.2232412   -0.3163566   -0.0437281    0.3114648   -0.1473745
   40   -0.0581562   -0.0065241   -0.0952043    0.0442326   -0.0310308
   41    0.3377869    0.0404058    0.5656628   -0.2697865    0.1909955
   42    0.0000000    0.0000000    0.0000000    0.0000000    0.0000000
   43    0.3489060    0.2265491    0.3511570    0.0962163    0.2300907
   44   -0.2232412   -0.3163566   -0.0437281   -0.3114648    0.1473745
   45    0.0989787   -0.3680118    0.1849373    0.5079929   -0.2083332
   46    0.0989787    0.3680118   -0.1849373    0.5079929   -0.2083332
   47    0.0385566   -0.0057464   -0.0384067   -0.0113397   -0.0793351
   48   -0.2255319    0.0373122    0.2236368    0.0632455    0.5086040
   49    0.0000000    0.0000000    0.0000000    0.0000000    0.0000000
   50   -0.1159325    0.1328749    0.0974368   -0.2214833    0.0210013
   51    0.1418259   -0.3040166   -0.1084435    0.3107051    0.1873306
   52    0.0385566    0.0057464    0.0384067   -0.0113397   -0.0793351
   53   -0.2255319   -0.0373122   -0.2236368    0.0632455    0.5086040
   54    0.0000000    0.0000000    0.0000000    0.0000000    0.0000000
   55    0.1159325    0.1328749    0.0974368    0.2214833   -0.0210013
   56   -0.1418259   -0.3040166   -0.1084435   -0.3107051   -0.1873306
   57   -0.1093987    0.3099382    0.0474046   -0.3761461   -0.4069858
   58   -0.1093987   -0.3099382   -0.0474046   -0.3761461   -0.4069858
   59    0.3289415   -0.2688480   -0.2819057    0.2737860   -0.2210365
   60    0.3289415    0.2688480    0.2819057    0.2737860   -0.2210365

 Ene     0.3737603    0.3853783    0.4232447    0.4394312    0.4633079
 Sym            Ag           Bu           Bu           Ag           Ag
 Occ             0            0            0            0            0


                46           47           48           49           50

    1    0.0913107    0.0057354    0.1191039    0.0536467    0.0298306
    2   -0.5585683   -0.0454784   -0.7469384   -0.3298262   -0.1921231
    3    0.0000000    0.0000000    0.0000000    0.0000000    0.0000000
    4   -0.1107741   -0.1948827   -0.1600962   -0.0866457   -0.0464795
    5    0.1480913    0.0358280   -0.0186070   -0.1837729   -0.3083108
    6   -0.0913107   -0.0057354    0.1191039   -0.0536467    0.0298306
    7    0.5585683    0.0454784   -0.7469384    0.3298262   -0.1921231
    8    0.0000000    0.0000000    0.0000000    0.0000000    0.0000000
    9   -0.1107741   -0.1948827    0.1600962   -0.0866457    0.0464795
   10    0.1480913    0.0358280    0.0186070   -0.1837729    0.3083108
   11   -0.0919915   -0.0347651   -0.0905812   -0.0516927   -0.0877754
   12    0.5611243    0.2233301    0.5764778    0.3239801    0.5672288
   13    0.0000000    0.0000000    0.0000000    0.0000000    0.0000000
   14   -0.1071092   -0.3087327   -0.2363471   -0.1112928    0.1237234
   15    0.1415321    0.2224130   -0.0549057   -0.1793685   -0.1433594
   16    0.0919915    0.0347651   -0.0905812    0.0516927   -0.0877754
   17   -0.5611243   -0.2233301    0.5764778   -0.3239801    0.5672288
   18    0.0000000    0.0000000    0.0000000    0.0000000    0.0000000
   19   -0.1071092   -0.3087327    0.2363471   -0.1112928   -0.1237234
   20    0.1415321    0.2224130    0.0549057   -0.1793685    0.1433594
   21    0.1069568   -0.0241231   -0.0400202    0.0497112    0.0834134
   22   -0.6590878    0.1617215    0.2576674   -0.3097839   -0.5410927
   23    0.0000000    0.0000000    0.0000000    0.0000000    0.0000000
   24   -0.2029013   -0.0535407    0.2187635   -0.0670750    0.1645898
   25    0.0717777    0.2052628   -0.3090563   -0.1480917   -0.0943305
   26   -0.1069568    0.0241231   -0.0400202   -0.0497112    0.0834134
   27    0.6590878   -0.1617215    0.2576674    0.3097839   -0.5410927
   28    0.0000000    0.0000000    0.0000000    0.0000000    0.0000000
   29   -0.2029013   -0.0535407   -0.2187635   -0.0670750   -0.1645898
   30    0.0717777    0.2052628    0.3090563   -0.1480917    0.0943305
   31   -0.4851381   -0.4418374   -0.2955611   -0.0262873   -0.1119909
   32    0.4851381    0.4418374   -0.2955611    0.0262873   -0.1119909
   33    0.3920262   -0.1628304   -0.0630218    0.3724019    0.2824440
   34   -0.3920262    0.1628304   -0.0630218   -0.3724019    0.2824440
   35    0.0191053   -0.0674809   -0.0832261    0.0783121   -0.0267461
   36   -0.1203661    0.4333637    0.5071367   -0.4831506    0.1935483
   37    0.0000000    0.0000000    0.0000000    0.0000000    0.0000000
   38    0.1267466   -0.0678217   -0.0188474   -0.1220897   -0.0740607
   39    0.0843350   -0.2776475   -0.1164658    0.0487635   -0.0758173
   40   -0.0191053    0.0674809   -0.0832261   -0.0783121   -0.0267461
   41    0.1203661   -0.4333637    0.5071367    0.4831506    0.1935483
   42    0.0000000    0.0000000    0.0000000    0.0000000    0.0000000
   43    0.1267466   -0.0678217    0.0188474   -0.1220897    0.0740607
   44    0.0843350   -0.2776475    0.1164658    0.0487635    0.0758173
   45    0.0853045   -0.4728593   -0.3731166    0.3275820   -0.1114057
   46   -0.0853045    0.4728593   -0.3731166   -0.3275820   -0.1114057
   47    0.0590476   -0.0557937    0.0741805   -0.1185249   -0.0835725
   48   -0.3767503    0.3634624   -0.4610492    0.7572331    0.5432229
   49    0.0000000    0.0000000    0.0000000    0.0000000    0.0000000
   50   -0.0252014    0.3478569    0.0483177   -0.0416224    0.4095069
   51   -0.2141626    0.0054287   -0.1287951    0.1969455    0.1418410
   52   -0.0590476    0.0557937    0.0741805    0.1185249   -0.0835725
   53    0.3767503   -0.3634624   -0.4610492   -0.7572331    0.5432229
   54    0.0000000    0.0000000    0.0000000    0.0000000    0.0000000
   55   -0.0252014    0.3478569   -0.0483177   -0.0416224   -0.4095069
   56   -0.2141626    0.0054287    0.1287951    0.1969455   -0.1418410
   57    0.3594358   -0.0942589    0.3652737   -0.6016669   -0.3519043
   58   -0.3594358    0.0942589    0.3652737    0.6016669   -0.3519043
   59    0.1541072   -0.4955679    0.1633782   -0.2855150   -0.5763415
   60   -0.1541072    0.4955679    0.1633782    0.2855150   -0.5763415

 Ene     0.4658116    0.4928054    0.4929082    0.5200089    0.5461477
 Sym            Bu           Bu           Ag           Bu           Ag
 Occ             0            0            0            0            0


                51           52           53           54           55

    1    0.0409982    0.0008137    0.0019715    0.0624399    0.0801920
    2   -0.2937930   -0.0138137   -0.0073940   -0.4401798   -0.5576012
    3    0.0000000    0.0000000    0.0000000    0.0000000    0.0000000
    4   -0.6140374    0.0683748    0.0316736    0.0354204    0.0090366
    5    0.1323403    0.5706950   -0.1690918   -0.1932420    0.1908516
    6    0.0409982   -0.0008137    0.0019715   -0.0624399   -0.0801920
    7   -0.2937930    0.0138137   -0.0073940    0.4401798    0.5576012
    8    0.0000000    0.0000000    0.0000000    0.0000000    0.0000000
    9    0.6140374    0.0683748   -0.0316736    0.0354204    0.0090366
   10   -0.1323403    0.5706950    0.1690918   -0.1932420    0.1908516
   11    0.0030158    0.0944847    0.0069625    0.0455160   -0.0010723
   12   -0.0157363   -0.6456824   -0.0374537   -0.3135584   -0.0026944
   13    0.0000000    0.0000000    0.0000000    0.0000000    0.0000000
   14   -0.1054704    0.1447515    0.1870371   -0.7067180   -0.0171828
   15   -0.4496071   -0.0457622   -0.5397045   -0.2315019   -0.2675882
   16    0.0030158   -0.0944847    0.0069625   -0.0455160    0.0010723
   17   -0.0157363    0.6456824   -0.0374537    0.3135584    0.0026944
   18    0.0000000    0.0000000    0.0000000    0.0000000    0.0000000
   19    0.1054704    0.1447515   -0.1870371   -0.7067180   -0.0171828
   20    0.4496071   -0.0457622    0.5397045   -0.2315019   -0.2675882
   21   -0.0354166    0.0446884   -0.0099164   -0.0831750    0.0366384
   22    0.2354851   -0.3136288    0.0562021    0.5797176   -0.2506574
   23    0.0000000    0.0000000    0.0000000    0.0000000    0.0000000
   24   -0.0734289   -0.4774324    0.3816504   -0.4306405   -0.0876388
   25   -0.3150568    0.1694727    0.5098266    0.3670589    0.3468237
   26   -0.0354166   -0.0446884   -0.0099164    0.0831750   -0.0366384
   27    0.2354851    0.3136288    0.0562021   -0.5797176    0.2506574
   28    0.0000000    0.0000000    0.0000000    0.0000000    0.0000000
   29    0.0734289   -0.4774324   -0.3816504   -0.4306405   -0.0876388
   30    0.3150568    0.1694727   -0.5098266    0.3670589    0.3468237
   31    0.3145811    0.3453155    0.4887878    0.1173877    0.1511035
   32    0.3145811   -0.3453155    0.4887878   -0.1173877   -0.1511035
   33    0.1201560    0.2680886   -0.5495655   -0.2624169   -0.0289872
   34    0.1201560   -0.2680886   -0.5495655    0.2624169    0.0289872
   35    0.0939866   -0.0236420   -0.0468601    0.0587982   -0.0315426
   36   -0.6145771    0.1778048    0.3234690   -0.4037519    0.2351777
   37    0.0000000    0.0000000    0.0000000    0.0000000    0.0000000
   38    0.0386611    0.0590064    0.1458100   -0.0041946    0.4592521
   39    0.1306183    0.2038377    0.1135903    0.0601245   -0.3364362
   40    0.0939866    0.0236420   -0.0468601   -0.0587982    0.0315426
   41   -0.6145771   -0.1778048    0.3234690    0.4037519   -0.2351777
   42    0.0000000    0.0000000    0.0000000    0.0000000    0.0000000
   43   -0.0386611    0.0590064   -0.1458100   -0.0041946    0.4592521
   44   -0.1306183    0.2038377   -0.1135903    0.0601245   -0.3364362
   45    0.3542510    0.1105257   -0.0916389    0.2316619   -0.4049103
   46    0.3542510   -0.1105257   -0.0916389   -0.2316619    0.4049103
   47   -0.0277456   -0.0036568    0.0408163   -0.0019218    0.0196917
   48    0.1750795    0.0125214   -0.2832276    0.0088540   -0.1398206
   49    0.0000000    0.0000000    0.0000000    0.0000000    0.0000000
   50    0.0610161    0.4476649    0.2507990   -0.1118084   -0.2564910
   51   -0.3120291    0.0283550    0.0547229   -0.2106265    0.5287933
   52   -0.0277456    0.0036568    0.0408163    0.0019218   -0.0196917
   53    0.1750795   -0.0125214   -0.2832276   -0.0088540    0.1398206
   54    0.0000000    0.0000000    0.0000000    0.0000000    0.0000000
   55   -0.0610161    0.4476649   -0.2507990   -0.1118084   -0.2564910
   56    0.3120291    0.0283550   -0.0547229   -0.2106265    0.5287933
   57    0.1751647    0.0174209    0.1620677    0.1809189   -0.3692713
   58    0.1751647   -0.0174209    0.1620677   -0.1809189    0.3692713
   59   -0.2236688   -0.3665566   -0.0645883    0.0256527    0.3668680
   60   -0.2236688    0.3665566   -0.0645883   -0.0256527   -0.3668680

 Ene     0.5897108    0.6169651    0.6578799    0.6839529    0.7245655
 Sym            Ag           Bu           Ag           Bu           Bu
 Occ             0            0            0            0            0


                56           57           58           59           60

    1    0.0161805    0.0210001    0.0216812    0.0060814    0.0354368
    2   -0.1008995   -0.1368729   -0.1571582   -0.0411599   -0.2748716
    3    0.0000000    0.0000000    0.0000000    0.0000000    0.0000000
    4    0.2691694    0.3905374   -0.1569734   -0.0356029   -0.6416245
    5   -0.1403063    0.1410042   -0.4145792   -0.6799162    0.1688387
    6    0.0161805    0.0210001   -0.0216812    0.0060814   -0.0354368
    7   -0.1008995   -0.1368729    0.1571582   -0.0411599    0.2748716
    8    0.0000000    0.0000000    0.0000000    0.0000000    0.0000000
    9   -0.2691694   -0.3905374   -0.1569734    0.0356029   -0.6416245
   10    0.1403063   -0.1410042   -0.4145792    0.6799162    0.1688387
   11    0.0255197   -0.0178393   -0.0442580   -0.0053557   -0.0448081
   12   -0.1841266    0.1293141    0.3259941    0.0383232    0.3321577
   13    0.0000000    0.0000000    0.0000000    0.0000000    0.0000000
   14   -0.4373193    0.3551419   -0.1034207   -0.5244683    0.2486799
   15    0.2006425    0.1356635   -0.2223475   -0.2386753   -0.5485567
   16    0.0255197   -0.0178393    0.0442580   -0.0053557    0.0448081
   17   -0.1841266    0.1293141   -0.3259941    0.0383232   -0.3321577
   18    0.0000000    0.0000000    0.0000000    0.0000000    0.0000000
   19    0.4373193   -0.3551419   -0.1034207    0.5244683    0.2486799
   20   -0.2006425   -0.1356635   -0.2223475    0.2386753   -0.5485567
   21   -0.0337302    0.0114630   -0.0160149    0.0048304    0.0509880
   22    0.2364680   -0.0865179    0.1225538   -0.0336789   -0.3803829
   23    0.0000000    0.0000000    0.0000000    0.0000000    0.0000000
   24   -0.3593949    0.4191591    0.2222010   -0.4019335    0.3860655
   25    0.1583308    0.0105008   -0.0107284    0.4313313    0.4864845
   26   -0.0337302    0.0114630    0.0160149    0.0048304   -0.0509880
   27    0.2364680   -0.0865179   -0.1225538   -0.0336789    0.3803829
   28    0.0000000    0.0000000    0.0000000    0.0000000    0.0000000
   29    0.3593949   -0.4191591    0.2222010    0.4019335    0.3860655
   30   -0.1583308   -0.0105008   -0.0107284   -0.4313313    0.4864845
   31   -0.1946637   -0.0653362    0.0049464    0.0124718    0.2855569
   32   -0.1946637   -0.0653362   -0.0049464    0.0124718   -0.2855569
   33   -0.0287156   -0.1920554   -0.1197900   -0.0502071   -0.2913492
   34   -0.0287156   -0.1920554    0.1197900   -0.0502071    0.2913492
   35   -0.0368169    0.0388314   -0.0599181    0.0270420   -0.0087950
   36    0.2656856   -0.3106561    0.4626380   -0.2209339    0.0458057
   37    0.0000000    0.0000000    0.0000000    0.0000000    0.0000000
   38   -0.1033701   -0.6750256    0.4471389   -0.3384130   -0.4162017
   39    0.5674453   -0.0338797    0.6275659   -0.4476629    0.0086320
   40   -0.0368169    0.0388314    0.0599181    0.0270420    0.0087950
   41    0.2656856   -0.3106561   -0.4626380   -0.2209339   -0.0458057
   42    0.0000000    0.0000000    0.0000000    0.0000000    0.0000000
   43    0.1033701    0.6750256    0.4471389    0.3384130   -0.4162017
   44   -0.5674453    0.0338797    0.6275659    0.4476629    0.0086320
   45    0.3347274    0.2038608    0.1955037   -0.1710147    0.0610464
   46    0.3347274    0.2038608   -0.1955037   -0.1710147   -0.0610464
   47    0.0317342   -0.0438098    0.0688551   -0.0419959   -0.0133261
   48   -0.2383928    0.3352680   -0.5303771    0.3349517    0.1132156
   49    0.0000000    0.0000000    0.0000000    0.0000000    0.0000000
   50    0.5560784   -0.1269475    0.5543036   -0.3345217   -0.0147778
   51   -0.1195752   -0.5965688    0.3858581   -0.2741840   -0.2688560
   52    0.0317342   -0.0438098   -0.0688551   -0.0419959    0.0133261
   53   -0.2383928    0.3352680    0.5303771    0.3349517   -0.1132156
   54    0.0000000    0.0000000    0.0000000    0.0000000    0.0000000
   55   -0.5560784    0.1269475    0.5543036    0.3345217   -0.0147778
   56    0.1195752    0.5965688    0.3858581    0.2741840   -0.2688560
   57    0.2639415    0.2994072   -0.0026777    0.0408484    0.1622833
   58    0.2639415    0.2994072    0.0026777    0.0408484   -0.1622833
   59   -0.3429081   -0.1607801   -0.1123972    0.0534091   -0.0787201
   60   -0.3429081   -0.1607801    0.1123972    0.0534091    0.0787201

 Ene     0.7392442    0.7898111    0.8223862    0.8922395    0.9024825
 Sym            Ag           Ag           Bu           Ag           Bu
 Occ             0            0            0            0            0



*** tstop() called on copper at Tue Aug  2 20:21:55 2016
Module time:
	user time   =       1.72 seconds =       0.03 minutes
	system time =       0.01 seconds =       0.00 minutes
	total time  =          2 seconds =       0.03 minutes
Total time:
	user time   =       1.72 seconds =       0.03 minutes
	system time =       0.01 seconds =       0.00 minutes
	total time  =          2 seconds =       0.03 minutes


Properties will be evaluated at   0.000000,   0.000000,   0.000000 Bohr

Properties computed using the SCF density matrix

  Nuclear Dipole Moment: (a.u.)
     X:     0.0000      Y:     0.0000      Z:     0.0000

  Electronic Dipole Moment: (a.u.)
     X:     0.0000      Y:     0.0000      Z:     0.0000

  Dipole Moment: (a.u.)
     X:     0.0000      Y:     0.0000      Z:     0.0000     Total:     0.0000

  Dipole Moment: (Debye)
     X:     0.0000      Y:     0.0000      Z:     0.0000     Total:     0.0000



Properties will be evaluated at   0.000000,   0.000000,   0.000000 Bohr

Properties computed using the  density matrix


 Multipole Moments:

 ------------------------------------------------------------------------------------
     Multipole             Electric (a.u.)       Nuclear  (a.u.)        Total (a.u.)
 ------------------------------------------------------------------------------------

 L = 1.  Multiply by 2.5417462300 to convert to Debye
 Dipole X            :          0.0000000            0.0000000            0.0000000
 Dipole Y            :          0.0000000            0.0000000            0.0000000
 Dipole Z            :          0.0000000            0.0000000            0.0000000

 L = 2.  Multiply by 1.3450341749 to convert to Debye.ang
 Quadrupole XX       :      -1506.7494280         1496.8839996           -9.8654284
 Quadrupole XY       :         -9.9455604           11.4580038            1.5124434
 Quadrupole XZ       :          0.0000000            0.0000000            0.0000000
 Quadrupole YY       :       -278.0437748          244.8754384          -33.1683364
 Quadrupole YZ       :          0.0000000            0.0000000            0.0000000
 Quadrupole ZZ       :        -41.9933874            0.0000000          -41.9933874

 L = 3.  Multiply by 0.7117614302 to convert to Debye.ang^2
 Octupole XXX        :          0.0000000            0.0000000            0.0000000
 Octupole XXY        :          0.0000000            0.0000000            0.0000000
 Octupole XXZ        :          0.0000000            0.0000000            0.0000000
 Octupole XYY        :          0.0000000            0.0000000            0.0000000
 Octupole XYZ        :          0.0000000            0.0000000            0.0000000
 Octupole XZZ        :          0.0000000            0.0000000            0.0000000
 Octupole YYY        :          0.0000000            0.0000000            0.0000000
 Octupole YYZ        :          0.0000000            0.0000000            0.0000000
 Octupole YZZ        :          0.0000000            0.0000000            0.0000000
 Octupole ZZZ        :          0.0000000            0.0000000            0.0000000

 L = 4.  Multiply by 0.3766479268 to convert to Debye.ang^3
 Hexadecapole XXXX   :     -71811.2256535        68490.6499305        -3320.5757230
 Hexadecapole XXXY   :      -2425.2988675         2491.6209456           66.3220781
 Hexadecapole XXXZ   :          0.0000000            0.0000000            0.0000000
 Hexadecapole XXYY   :      -3551.3008564         2641.3398575         -909.9609989
 Hexadecapole XXYZ   :          0.0000000            0.0000000            0.0000000
 Hexadecapole XXZZ   :       -934.6964797            0.0000000         -934.6964797
 Hexadecapole XYYY   :         27.4577116          -48.3518197          -20.8941081
 Hexadecapole XYYZ   :          0.0000000            0.0000000            0.0000000
 Hexadecapole XYZZ   :         -4.3015331            0.0000000           -4.3015331
 Hexadecapole XZZZ   :          0.0000000            0.0000000            0.0000000
 Hexadecapole YYYY   :      -2917.4135975         2103.6746773         -813.7389202
 Hexadecapole YYYZ   :          0.0000000            0.0000000            0.0000000
 Hexadecapole YYZZ   :       -187.3702809            0.0000000         -187.3702809
 Hexadecapole YZZZ   :          0.0000000            0.0000000            0.0000000
 Hexadecapole ZZZZ   :       -120.8469225            0.0000000         -120.8469225

 L = 5.  Multiply by 0.1993134985 to convert to Debye.ang^4
 32-pole XXXXX       :          0.0000000            0.0000000            0.0000000
 32-pole XXXXY       :          0.0000000            0.0000000            0.0000000
 32-pole XXXXZ       :          0.0000000            0.0000000            0.0000000
 32-pole XXXYY       :          0.0000000            0.0000000            0.0000000
 32-pole XXXYZ       :          0.0000000            0.0000000            0.0000000
 32-pole XXXZZ       :          0.0000000            0.0000000            0.0000000
 32-pole XXYYY       :          0.0000000            0.0000000            0.0000000
 32-pole XXYYZ       :          0.0000000            0.0000000            0.0000000
 32-pole XXYZZ       :          0.0000000            0.0000000            0.0000000
 32-pole XXZZZ       :          0.0000000            0.0000000            0.0000000
 32-pole XYYYY       :          0.0000000            0.0000000            0.0000000
 32-pole XYYYZ       :          0.0000000            0.0000000            0.0000000
 32-pole XYYZZ       :          0.0000000            0.0000000            0.0000000
 32-pole XYZZZ       :          0.0000000            0.0000000            0.0000000
 32-pole XZZZZ       :          0.0000000            0.0000000            0.0000000
 32-pole YYYYY       :          0.0000000            0.0000000            0.0000000
 32-pole YYYYZ       :          0.0000000            0.0000000            0.0000000
 32-pole YYYZZ       :          0.0000000            0.0000000            0.0000000
 32-pole YYZZZ       :          0.0000000            0.0000000            0.0000000
 32-pole YZZZZ       :          0.0000000            0.0000000            0.0000000
 32-pole ZZZZZ       :          0.0000000            0.0000000            0.0000000

 --------------------------------------------------------------------------------
  Mulliken Charges: (a.u.)
   Center  Symbol    Alpha    Beta     Spin     Total
       1     C     3.06894  2.83308  0.23586  0.09798
       2     C     3.06894  2.83308  0.23586  0.09798
       3     C     3.04310  2.98091  0.06218 -0.02401
       4     C     3.04310  2.98091  0.06218 -0.02401
       5     C     3.04481  2.98304  0.06176 -0.02785
       6     C     3.04481  2.98304  0.06176 -0.02785
       7     H     0.44265  0.44265  0.00000  0.11469
       8     H     0.44265  0.44265  0.00000  0.11469
       9     H     0.44497  0.44497  0.00000  0.11007
      10     H     0.44497  0.44497  0.00000  0.11007
      11     C     3.04512  3.01188  0.03324 -0.05700
      12     C     3.04512  3.01188  0.03324 -0.05700
      13     H     0.45109  0.45109  0.00000  0.09782
      14     H     0.45109  0.45109  0.00000  0.09782
      15     C     3.07321  2.96625  0.10695 -0.03946
      16     C     3.07321  2.96625  0.10695 -0.03946
      17     H     0.44821  0.44821  0.00000  0.10358
      18     H     0.44821  0.44821  0.00000  0.10358
      19     H     0.43791  0.43791  0.00000  0.12418
      20     H     0.43791  0.43791  0.00000  0.12418

   Total alpha = 35.00000, Total beta = 34.00000, Total charge =  1.00000

  Lowdin Charges: (a.u.)
   Center  Symbol    Alpha    Beta     Spin     Total
       1     C     3.05011  2.81568  0.23443  0.13421
       2     C     3.05011  2.81568  0.23443  0.13421
       3     C     3.02687  2.96436  0.06252  0.00877
       4     C     3.02687  2.96436  0.06252  0.00877
       5     C     3.02864  2.96654  0.06210  0.00481
       6     C     3.02864  2.96654  0.06210  0.00481
       7     H     0.46449  0.46449  0.00000  0.07103
       8     H     0.46449  0.46449  0.00000  0.07103
       9     H     0.46605  0.46605  0.00000  0.06789
      10     H     0.46605  0.46605  0.00000  0.06789
      11     C     3.03308  2.99983  0.03325 -0.03291
      12     C     3.03308  2.99983  0.03325 -0.03291
      13     H     0.47110  0.47110  0.00000  0.05780
      14     H     0.47110  0.47110  0.00000  0.05780
      15     C     3.03173  2.92402  0.10771  0.04425
      16     C     3.03173  2.92402  0.10771  0.04425
      17     H     0.46788  0.46788  0.00000  0.06424
      18     H     0.46788  0.46788  0.00000  0.06424
      19     H     0.46005  0.46005  0.00000  0.07991
      20     H     0.46005  0.46005  0.00000  0.07991

  Total alpha = 35.00000, Total beta = 34.00000, Total charge =  1.00000

*** Psi4 exiting successfully. Buy a developer a beer!
