    -----------------------------------------------------------------------
          Psi4: An Open-Source Ab Initio Electronic Structure Package
                              Psi4 1.0.54 Driver

                          Git: Rev {master} 8d4cec3 dirty

    J. M. Turney, A. C. Simmonett, R. M. Parrish, E. G. Hohenstein,
    F. A. Evangelista, J. T. Fermann, B. J. Mintz, L. A. Burns, J. J. Wilke,
    M. L. Abrams, N. J. Russ, M. L. Leininger, C. L. Janssen, E. T. Seidl,
    W. D. Allen, H. F. Schaefer, R. A. King, E. F. Valeev, C. D. Sherrill,
    and T. D. Crawford, WIREs Comput. Mol. Sci. 2, 556-565 (2012)
    (doi: 10.1002/wcms.93)

                         Additional Contributions by
    A. E. DePrince, U. Bozkaya, A. Yu. Sokolov, D. G. A. Smith, R. Di Remigio,
    R. M. Richard, J. F. Gonthier, H. R. McAlexander, M. Saitow, and
    B. P. Pritchard
    -----------------------------------------------------------------------


    Psi4 started on: Tue Aug  2 20:18:20 2016

    Process ID:  11919
    PSI4DATADIR: /home/eric/opt/apps/python/anaconda2/share/psi4
    Memory level set to 256.000 MB

  ==> Input File <==

--------------------------------------------------------------------------
molecule dvb {
    0 1
    C    -1.4152533224   0.2302217854   0.0000000000
    C     1.4152533224  -0.2302217854   0.0000000000
    C    -0.4951331558   1.3144608674   0.0000000000
    C     0.4951331558  -1.3144608674   0.0000000000
    C     0.8894090436   1.0909493743   0.0000000000
    C    -0.8894090436  -1.0909493743   0.0000000000
    H    -0.8795511985   2.3437343748   0.0000000000
    H     0.8795511985  -2.3437343748   0.0000000000
    H     1.5779041557   1.9450061275   0.0000000000
    H    -1.5779041557  -1.9450061275   0.0000000000
    C     2.8845844962  -0.5210893778   0.0000000000
    C    -2.8845844962   0.5210893778   0.0000000000
    H     3.1403356810  -1.5919605685   0.0000000000
    H    -3.1403356810   1.5919605685   0.0000000000
    C     3.8800428103   0.3822535424   0.0000000000
    C    -3.8800428103  -0.3822535424   0.0000000000
    H     3.6946765858   1.4624389570   0.0000000000
    H    -3.6946765858  -1.4624389570   0.0000000000
    H     4.9316453546   0.0711049543   0.0000000000
    H    -4.9316453546  -0.0711049543   0.0000000000
}

set {
    basis sto-3g
}

optimize('scf')--------------------------------------------------------------------------
gradient() will perform analytic gradient computation.

*** tstart() called on copper
*** at Tue Aug  2 20:18:21 2016


         ---------------------------------------------------------
                                   SCF
            by Justin Turney, Rob Parrish, and Andy Simmonett
                              RHF Reference
                        1 Threads,    256 MiB Core
         ---------------------------------------------------------

  ==> Geometry <==

    Molecular point group: c2h
    Full point group: C2h

    Geometry (in Angstrom), charge = 0, multiplicity = 1:

       Center              X                  Y                   Z               Mass       
    ------------   -----------------  -----------------  -----------------  -----------------
           C         -1.415253322400     0.230221785400     0.000000000000    12.000000000000
           C          1.415253322400    -0.230221785400     0.000000000000    12.000000000000
           C         -0.495133155800     1.314460867400     0.000000000000    12.000000000000
           C          0.495133155800    -1.314460867400     0.000000000000    12.000000000000
           C          0.889409043600     1.090949374300     0.000000000000    12.000000000000
           C         -0.889409043600    -1.090949374300     0.000000000000    12.000000000000
           H         -0.879551198500     2.343734374800     0.000000000000     1.007825032070
           H          0.879551198500    -2.343734374800     0.000000000000     1.007825032070
           H          1.577904155700     1.945006127500     0.000000000000     1.007825032070
           H         -1.577904155700    -1.945006127500     0.000000000000     1.007825032070
           C          2.884584496200    -0.521089377800     0.000000000000    12.000000000000
           C         -2.884584496200     0.521089377800     0.000000000000    12.000000000000
           H          3.140335681000    -1.591960568500     0.000000000000     1.007825032070
           H         -3.140335681000     1.591960568500     0.000000000000     1.007825032070
           C          3.880042810300     0.382253542400     0.000000000000    12.000000000000
           C         -3.880042810300    -0.382253542400     0.000000000000    12.000000000000
           H          3.694676585800     1.462438957000     0.000000000000     1.007825032070
           H         -3.694676585800    -1.462438957000     0.000000000000     1.007825032070
           H          4.931645354600     0.071104954300     0.000000000000     1.007825032070
           H         -4.931645354600    -0.071104954300     0.000000000000     1.007825032070

  Running in c2h symmetry.

  Rotational constants: A =      0.15403  B =      0.02287  C =      0.01992 [cm^-1]
  Rotational constants: A =   4617.84332  B =    685.76183  C =    597.09209 [MHz]
  Nuclear repulsion =  445.936978114243459

  Charge       = 0
  Multiplicity = 1
  Electrons    = 70
  Nalpha       = 35
  Nbeta        = 35

  ==> Algorithm <==

  SCF Algorithm Type is DF.
  DIIS enabled.
  MOM disabled.
  Fractional occupation disabled.
  Guess Type is SAD.
  Energy threshold   = 1.00e-08
  Density threshold  = 1.00e-08
  Integral threshold = 0.00e+00

  ==> Primary Basis <==

  Basis Set: STO-3G
    Number of shells: 40
    Number of basis function: 60
    Number of Cartesian functions: 60
    Spherical Harmonics?: true
    Max angular momentum: 1

  ==> Pre-Iterations <==

   -------------------------------------------------------
    Irrep   Nso     Nmo     Nalpha   Nbeta   Ndocc  Nsocc
   -------------------------------------------------------
     Ag        25      25       0       0       0       0
     Bg         5       5       0       0       0       0
     Au         5       5       0       0       0       0
     Bu        25      25       0       0       0       0
   -------------------------------------------------------
    Total      60      60      35      35      35       0
   -------------------------------------------------------

  ==> Integral Setup <==

  ==> DFJK: Density-Fitted J/K Matrices <==

    J tasked:                  Yes
    K tasked:                  Yes
    wK tasked:                  No
    OpenMP threads:              1
    Integrals threads:           1
    Memory (MB):               183
    Algorithm:                Core
    Integral Cache:           NONE
    Schwarz Cutoff:          1E-12
    Fitting Condition:       1E-12

   => Auxiliary Basis Set <=

  Basis Set: 
    Number of shells: 240
    Number of basis function: 700
    Number of Cartesian functions: 810
    Spherical Harmonics?: true
    Max angular momentum: 3

  Minimum eigenvalue in the overlap matrix is 1.8147107108E-01.
  Using Symmetric Orthogonalization.
  SCF Guess: Superposition of Atomic Densities via on-the-fly atomic UHF.

  ==> Iterations <==

                           Total Energy        Delta E     RMS |[F,P]|

   @DF-RHF iter   0:  -379.40205305217631   -3.79402e+02   1.22403e-01 
   @DF-RHF iter   1:  -379.51257123009458   -1.10518e-01   1.48230e-02 
   @DF-RHF iter   2:  -379.75450712705305   -2.41936e-01   3.85545e-03 DIIS
   @DF-RHF iter   3:  -379.76943798475787   -1.49309e-02   1.54554e-03 DIIS
   @DF-RHF iter   4:  -379.77133633793932   -1.89835e-03   2.31033e-04 DIIS
   @DF-RHF iter   5:  -379.77138783323215   -5.14953e-05   2.54560e-05 DIIS
   @DF-RHF iter   6:  -379.77138913238588   -1.29915e-06   8.40043e-06 DIIS
   @DF-RHF iter   7:  -379.77138924207492   -1.09689e-07   2.68273e-06 DIIS
   @DF-RHF iter   8:  -379.77138925570915   -1.36342e-08   6.92034e-07 DIIS
   @DF-RHF iter   9:  -379.77138925648745   -7.78300e-10   2.08341e-07 DIIS
   @DF-RHF iter  10:  -379.77138925655385   -6.63931e-11   5.07393e-08 DIIS
   @DF-RHF iter  11:  -379.77138925655885   -5.00222e-12   1.17845e-08 DIIS
   @DF-RHF iter  12:  -379.77138925655885    0.00000e+00   2.74810e-09 DIIS

  ==> Post-Iterations <==

    Orbital Energies (a.u.)
    -----------------------

    Doubly Occupied:                                                      

       1Bu   -11.040932     1Ag   -11.040869     2Bu   -11.031921  
       2Ag   -11.031921     3Bu   -11.029276     3Ag   -11.029146  
       4Bu   -11.028933     4Ag   -11.028910     5Bu   -11.017782  
       5Ag   -11.017782     6Ag    -1.090293     6Bu    -1.020258  
       7Ag    -0.974920     7Bu    -0.950307     8Bu    -0.909639  
       8Ag    -0.799874     9Ag    -0.762813     9Bu    -0.727632  
      10Ag    -0.696760    11Ag    -0.628021    10Bu    -0.605649  
      11Bu    -0.572931    12Bu    -0.553568    12Ag    -0.553140  
      13Bu    -0.525339    14Bu    -0.496654    13Ag    -0.492517  
       1Au    -0.463677    15Bu    -0.446429    14Ag    -0.421637  
      15Ag    -0.415609     1Bg    -0.376922     2Au    -0.315103  
       2Bg    -0.278318     3Bg    -0.222155  

    Virtual:                                                              

       3Au     0.199062     4Au     0.268583     4Bg     0.308895  
       5Au     0.397151     5Bg     0.521844    16Ag     0.565090  
      16Bu     0.575624    17Ag     0.621633    17Bu     0.625874  
      18Ag     0.658309    18Bu     0.659466    19Bu     0.677255  
      19Ag     0.694260    20Bu     0.706779    20Ag     0.740212  
      21Ag     0.802337    21Bu     0.825703    22Ag     0.860709  
      22Bu     0.887805    23Bu     0.921080    23Ag     0.940031  
      24Ag     0.990333    24Bu     1.027300    25Ag     1.107718  
      25Bu     1.125060  

    Final Occupation by Irrep:
             Ag    Bg    Au    Bu 
    DOCC [    15,    3,    2,   15 ]

  Energy converged.

  @DF-RHF Final Energy:  -379.77138925655885

   => Energetics <=

    Nuclear Repulsion Energy =            445.9369781142434590
    One-Electron Energy =               -1400.2214629893014717
    Two-Electron Energy =                 574.5130956184993920
    DFT Exchange-Correlation Energy =       0.0000000000000000
    Empirical Dispersion Energy =           0.0000000000000000
    PCM Polarization Energy =               0.0000000000000000
    EFP Energy =                            0.0000000000000000
    Total Energy =                       -379.7713892565586775


  Saving occupied orbitals to File 180.

*** tstop() called on copper at Tue Aug  2 20:18:22 2016
Module time:
	user time   =       1.78 seconds =       0.03 minutes
	system time =       0.00 seconds =       0.00 minutes
	total time  =          1 seconds =       0.02 minutes
Total time:
	user time   =       1.78 seconds =       0.03 minutes
	system time =       0.00 seconds =       0.00 minutes
	total time  =          1 seconds =       0.02 minutes


Properties will be evaluated at   0.000000,   0.000000,   0.000000 Bohr

Properties computed using the SCF density matrix

  Nuclear Dipole Moment: (a.u.)
     X:     0.0000      Y:     0.0000      Z:     0.0000

  Electronic Dipole Moment: (a.u.)
     X:     0.0000      Y:     0.0000      Z:     0.0000

  Dipole Moment: (a.u.)
     X:     0.0000      Y:     0.0000      Z:     0.0000     Total:     0.0000

  Dipole Moment: (Debye)
     X:     0.0000      Y:     0.0000      Z:     0.0000     Total:     0.0000


*** tstart() called on copper
*** at Tue Aug  2 20:18:22 2016


         ------------------------------------------------------------
                                   SCF GRAD                          
                          Rob Parrish, Justin Turney,                
                       Andy Simmonett, and Alex Sokolov              
         ------------------------------------------------------------

  ==> Geometry <==

    Molecular point group: c2h
    Full point group: C2h

    Geometry (in Angstrom), charge = 0, multiplicity = 1:

       Center              X                  Y                   Z               Mass       
    ------------   -----------------  -----------------  -----------------  -----------------
           C         -1.415253322400     0.230221785400     0.000000000000    12.000000000000
           C          1.415253322400    -0.230221785400     0.000000000000    12.000000000000
           C         -0.495133155800     1.314460867400     0.000000000000    12.000000000000
           C          0.495133155800    -1.314460867400     0.000000000000    12.000000000000
           C          0.889409043600     1.090949374300     0.000000000000    12.000000000000
           C         -0.889409043600    -1.090949374300     0.000000000000    12.000000000000
           H         -0.879551198500     2.343734374800     0.000000000000     1.007825032070
           H          0.879551198500    -2.343734374800     0.000000000000     1.007825032070
           H          1.577904155700     1.945006127500     0.000000000000     1.007825032070
           H         -1.577904155700    -1.945006127500     0.000000000000     1.007825032070
           C          2.884584496200    -0.521089377800     0.000000000000    12.000000000000
           C         -2.884584496200     0.521089377800     0.000000000000    12.000000000000
           H          3.140335681000    -1.591960568500     0.000000000000     1.007825032070
           H         -3.140335681000     1.591960568500     0.000000000000     1.007825032070
           C          3.880042810300     0.382253542400     0.000000000000    12.000000000000
           C         -3.880042810300    -0.382253542400     0.000000000000    12.000000000000
           H          3.694676585800     1.462438957000     0.000000000000     1.007825032070
           H         -3.694676585800    -1.462438957000     0.000000000000     1.007825032070
           H          4.931645354600     0.071104954300     0.000000000000     1.007825032070
           H         -4.931645354600    -0.071104954300     0.000000000000     1.007825032070

  Nuclear repulsion =  445.936978114243459

  ==> Basis Set <==

  Basis Set: STO-3G
    Number of shells: 40
    Number of basis function: 60
    Number of Cartesian functions: 60
    Spherical Harmonics?: true
    Max angular momentum: 1

  ==> DFJKGrad: Density-Fitted SCF Gradients <==

    Gradient:                    1
    J tasked:                  Yes
    K tasked:                  Yes
    wK tasked:                  No
    OpenMP threads:              1
    Integrals threads:           1
    Memory (MB):               183
    Schwarz Cutoff:          0E+00
    Fitting Condition:       1E-12

   => Auxiliary Basis Set <=

  Basis Set: 
    Number of shells: 240
    Number of basis function: 700
    Number of Cartesian functions: 810
    Spherical Harmonics?: true
    Max angular momentum: 3


  -Total Gradient:
     Atom            X                  Y                   Z
    ------   -----------------  -----------------  -----------------
       1       -0.024738708653     0.003911774676     0.000000000000
       2        0.024738708653    -0.003911774676     0.000000000000
       3       -0.002947205605     0.014262631852     0.000000000000
       4        0.002947205605    -0.014262631852     0.000000000000
       5        0.005571097144     0.013559496185     0.000000000000
       6       -0.005571097144    -0.013559496185     0.000000000000
       7       -0.005036050256     0.013076478280     0.000000000000
       8        0.005036050256    -0.013076478280     0.000000000000
       9        0.009865222712     0.009829448835     0.000000000000
      10       -0.009865222712    -0.009829448835     0.000000000000
      11       -0.032932165781    -0.017480941057     0.000000000000
      12        0.032932165781     0.017480941057     0.000000000000
      13        0.003226349530    -0.014103275880     0.000000000000
      14       -0.003226349530     0.014103275880     0.000000000000
      15        0.024017760718     0.021053111245     0.000000000000
      16       -0.024017760718    -0.021053111245     0.000000000000
      17       -0.003384500256     0.013513617880     0.000000000000
      18        0.003384500256    -0.013513617880     0.000000000000
      19        0.013255631364    -0.003909485231     0.000000000000
      20       -0.013255631364     0.003909485231     0.000000000000


*** tstop() called on copper at Tue Aug  2 20:18:24 2016
Module time:
	user time   =       1.95 seconds =       0.03 minutes
	system time =       0.02 seconds =       0.00 minutes
	total time  =          2 seconds =       0.03 minutes
Total time:
	user time   =       3.74 seconds =       0.06 minutes
	system time =       0.02 seconds =       0.00 minutes
	total time  =          3 seconds =       0.05 minutes

			-----------------------------------------
			 OPTKING 2.0: for geometry optimizations 
			  - R.A. King,  Bethel University        
			-----------------------------------------

	Internal coordinates to be generated automatically.
	Detected frag 1 with atoms:  1 2 3 4 5 6 7 8 9 10 11 12 13 14 15 16 17 18 19 20
	---Fragment 1 Bond Connectivity---
	 1 : 3 6 12
	 2 : 4 5 11
	 3 : 1 5 7
	 4 : 2 6 8
	 5 : 2 3 9
	 6 : 1 4 10
	 7 : 3
	 8 : 4
	 9 : 5
	 10 : 6
	 11 : 2 13 15
	 12 : 1 14 16
	 13 : 11
	 14 : 12
	 15 : 11 17 19
	 16 : 12 18 20
	 17 : 15
	 18 : 16
	 19 : 15
	 20 : 16

	---Fragment 1 Geometry and Gradient---
	 C          -2.6744411880        0.4350561242        0.0000000000
	 C           2.6744411880       -0.4350561242        0.0000000000
	 C          -0.9356660638        2.4839710518        0.0000000000
	 C           0.9356660638       -2.4839710518        0.0000000000
	 C           1.6807395125        2.0615955423        0.0000000000
	 C          -1.6807395125       -2.0615955423        0.0000000000
	 H          -1.6621108850        4.4290160966        0.0000000000
	 H           1.6621108850       -4.4290160966        0.0000000000
	 H           2.9818067182        3.6755289078        0.0000000000
	 H          -2.9818067182       -3.6755289078        0.0000000000
	 C           5.4510747050       -0.9847162148        0.0000000000
	 C          -5.4510747050        0.9847162148        0.0000000000
	 H           5.9343744024       -3.0083694888        0.0000000000
	 H          -5.9343744024        3.0083694888        0.0000000000
	 C           7.3322182953        0.7223545085        0.0000000000
	 C          -7.3322182953       -0.7223545085        0.0000000000
	 H           6.9819268967        2.7636091148        0.0000000000
	 H          -6.9819268967       -2.7636091148        0.0000000000
	 H           9.3194591047        0.1343688903        0.0000000000
	 H          -9.3194591047       -0.1343688903        0.0000000000
	            -0.0247387087        0.0039117747        0.0000000000
	             0.0247387087       -0.0039117747        0.0000000000
	            -0.0029472056        0.0142626319        0.0000000000
	             0.0029472056       -0.0142626319        0.0000000000
	             0.0055710971        0.0135594962        0.0000000000
	            -0.0055710971       -0.0135594962        0.0000000000
	            -0.0050360503        0.0130764783        0.0000000000
	             0.0050360503       -0.0130764783        0.0000000000
	             0.0098652227        0.0098294488        0.0000000000
	            -0.0098652227       -0.0098294488        0.0000000000
	            -0.0329321658       -0.0174809411        0.0000000000
	             0.0329321658        0.0174809411        0.0000000000
	             0.0032263495       -0.0141032759        0.0000000000
	            -0.0032263495        0.0141032759        0.0000000000
	             0.0240177607        0.0210531112        0.0000000000
	            -0.0240177607       -0.0210531112        0.0000000000
	            -0.0033845003        0.0135136179        0.0000000000
	             0.0033845003       -0.0135136179        0.0000000000
	             0.0132556314       -0.0039094852        0.0000000000
	            -0.0132556314        0.0039094852        0.0000000000

	Previous optimization step data not found.  Starting new optimization.

	---Fragment 1 Intrafragment Coordinates---
	 - Coordinate -           - BOHR/RAD -       - ANG/DEG -
	 R(1,3)           =         2.687265	       1.422039
	 R(1,6)           =         2.687138	       1.421972
	 R(1,12)          =         2.830516	       1.497844
	 R(2,4)           =         2.687265	       1.422039
	 R(2,5)           =         2.687138	       1.421972
	 R(2,11)          =         2.830516	       1.497844
	 R(3,5)           =         2.650279	       1.402467
	 R(3,7)           =         2.076276	       1.098718
	 R(4,6)           =         2.650279	       1.402467
	 R(4,8)           =         2.076276	       1.098718
	 R(5,9)           =         2.073055	       1.097013
	 R(6,10)          =         2.073055	       1.097013
	 R(11,13)         =         2.080565	       1.100988
	 R(11,15)         =         2.540235	       1.344234
	 R(12,14)         =         2.080565	       1.100988
	 R(12,16)         =         2.540235	       1.344234
	 R(15,17)         =         2.071093	       1.095975
	 R(15,19)         =         2.072403	       1.096668
	 R(16,18)         =         2.071093	       1.095975
	 R(16,20)         =         2.072403	       1.096668
	 B(1,3,5)         =         2.114443	     121.148665
	 B(1,3,7)         =         2.080452	     119.201095
	 B(1,6,4)         =         2.109642	     120.873578
	 B(1,6,10)        =         2.084322	     119.422852
	 B(1,12,14)       =         2.000663	     114.629535
	 B(1,12,16)       =         2.209236	     126.579923
	 B(2,4,6)         =         2.114443	     121.148665
	 B(2,4,8)         =         2.080452	     119.201095
	 B(2,5,3)         =         2.109642	     120.873578
	 B(2,5,9)         =         2.084322	     119.422852
	 B(2,11,13)       =         2.000663	     114.629535
	 B(2,11,15)       =         2.209236	     126.579923
	 B(3,1,6)         =         2.059100	     117.977757
	 B(3,1,12)        =         2.079063	     119.121552
	 B(3,5,9)         =         2.089221	     119.703570
	 B(4,2,5)         =         2.059100	     117.977757
	 B(4,2,11)        =         2.079063	     119.121552
	 B(4,6,10)        =         2.089221	     119.703570
	 B(5,2,11)        =         2.145022	     122.900691
	 B(5,3,7)         =         2.088291	     119.650240
	 B(6,1,12)        =         2.145022	     122.900691
	 B(6,4,8)         =         2.088291	     119.650240
	 B(11,15,17)      =         2.137770	     122.485172
	 B(11,15,19)      =         2.116996	     121.294925
	 B(12,16,18)      =         2.137770	     122.485172
	 B(12,16,20)      =         2.116996	     121.294925
	 B(13,11,15)      =         2.073286	     118.790543
	 B(14,12,16)      =         2.073286	     118.790543
	 B(17,15,19)      =         2.028420	     116.219903
	 B(18,16,20)      =         2.028420	     116.219903
	 D(1,3,5,2)       =         0.000000	       0.000000
	 D(1,3,5,9)       =         3.141593	     180.000000
	 D(1,6,4,2)       =         0.000000	       0.000000
	 D(1,6,4,8)       =         3.141593	     180.000000
	 D(1,12,16,18)    =         0.000000	       0.000000
	 D(1,12,16,20)    =         3.141593	     180.000000
	 D(2,4,6,10)      =         3.141593	     180.000000
	 D(2,5,3,7)       =         3.141593	     180.000000
	 D(2,11,15,17)    =         0.000000	       0.000000
	 D(2,11,15,19)    =         3.141593	     180.000000
	 D(3,1,6,4)       =         0.000000	       0.000000
	 D(3,1,6,10)      =         3.141593	     180.000000
	 D(3,1,12,14)     =         0.000000	       0.000000
	 D(3,1,12,16)     =         3.141593	     180.000000
	 D(3,5,2,4)       =         0.000000	       0.000000
	 D(3,5,2,11)      =         3.141593	     180.000000
	 D(4,2,5,9)       =         3.141593	     180.000000
	 D(4,2,11,13)     =         0.000000	       0.000000
	 D(4,2,11,15)     =         3.141593	     180.000000
	 D(4,6,1,12)      =         3.141593	     180.000000
	 D(5,2,4,6)       =         0.000000	       0.000000
	 D(5,2,4,8)       =         3.141593	     180.000000
	 D(5,2,11,13)     =         3.141593	     180.000000
	 D(5,2,11,15)     =         0.000000	       0.000000
	 D(5,3,1,6)       =         0.000000	       0.000000
	 D(5,3,1,12)      =         3.141593	     180.000000
	 D(6,1,3,7)       =         3.141593	     180.000000
	 D(6,1,12,14)     =         3.141593	     180.000000
	 D(6,1,12,16)     =         0.000000	       0.000000
	 D(6,4,2,11)      =         3.141593	     180.000000
	 D(7,3,1,12)      =         0.000000	       0.000000
	 D(7,3,5,9)       =         0.000000	       0.000000
	 D(8,4,2,11)      =         0.000000	       0.000000
	 D(8,4,6,10)      =         0.000000	       0.000000
	 D(9,5,2,11)      =         0.000000	       0.000000
	 D(10,6,1,12)     =         0.000000	       0.000000
	 D(13,11,15,17)   =         3.141593	     180.000000
	 D(13,11,15,19)   =         0.000000	       0.000000
	 D(14,12,16,18)   =         3.141593	     180.000000
	 D(14,12,16,20)   =         0.000000	       0.000000

	Current energy   :      -379.7713892566

	Generating empirical Hessian (Schlegel '84) for each fragment.
	Taking RFO optimization step.
	Going to follow RFO solution 1.
	Using RFO vector 1.
	Norm of target step-size    0.22783
	Projected energy change by RFO approximation:        -0.0224172662

	Back-transformation to cartesian coordinates...
	Successfully converged to displaced geometry.

	--- Internal Coordinate Step in ANG or DEG, aJ/ANG or AJ/DEG ---
	 ---------------------------------------------------------------------------
	   Coordinate                Previous        Force       Change         New 
	   ----------                --------       ------       ------       ------
	    1 R(1,3)          =      1.422039    -0.241084    -0.034788     1.387252
	    2 R(1,6)          =      1.421972    -0.245377    -0.035399     1.386573
	    3 R(1,12)         =      1.497844    -0.035290    -0.006483     1.491361
	    4 R(2,4)          =      1.422039    -0.241084    -0.034788     1.387252
	    5 R(2,5)          =      1.421972    -0.245377    -0.035399     1.386573
	    6 R(2,11)         =      1.497844    -0.035290    -0.006483     1.491361
	    7 R(3,5)          =      1.402467    -0.218627    -0.029518     1.372949
	    8 R(3,7)          =      1.098718    -0.115441    -0.020493     1.078225
	    9 R(4,6)          =      1.402467    -0.218627    -0.029518     1.372949
	   10 R(4,8)          =      1.098718    -0.115441    -0.020493     1.078225
	   11 R(5,9)          =      1.097013    -0.114057    -0.020141     1.076872
	   12 R(6,10)         =      1.097013    -0.114057    -0.020141     1.076872
	   13 R(11,13)        =      1.100988    -0.119189    -0.021306     1.079681
	   14 R(11,15)        =      1.344234    -0.376494    -0.041250     1.302985
	   15 R(12,14)        =      1.100988    -0.119189    -0.021306     1.079681
	   16 R(12,16)        =      1.344234    -0.376494    -0.041250     1.302985
	   17 R(15,17)        =      1.095975    -0.114447    -0.020146     1.075829
	   18 R(15,19)        =      1.096668    -0.113860    -0.020085     1.076583
	   19 R(16,18)        =      1.095975    -0.114447    -0.020146     1.075829
	   20 R(16,20)        =      1.096668    -0.113860    -0.020085     1.076583
	   21 B(1,3,5)        =    121.148665     0.000091     0.270507   121.419172
	   22 B(1,3,7)        =    119.201095    -0.000034    -0.089062   119.112033
	   23 B(1,6,4)        =    120.873578    -0.000004    -0.021537   120.852041
	   24 B(1,6,10)       =    119.422852     0.000121     0.499681   119.922533
	   25 B(1,12,14)      =    114.629535    -0.000037    -0.102319   114.527216
	   26 B(1,12,16)      =    126.579923     0.000095     0.294240   126.874163
	   27 B(2,4,6)        =    121.148665     0.000091     0.270507   121.419172
	   28 B(2,4,8)        =    119.201095    -0.000034    -0.089062   119.112033
	   29 B(2,5,3)        =    120.873578    -0.000004    -0.021537   120.852041
	   30 B(2,5,9)        =    119.422852     0.000121     0.499681   119.922533
	   31 B(2,11,13)      =    114.629535    -0.000037    -0.102319   114.527216
	   32 B(2,11,15)      =    126.579923     0.000095     0.294240   126.874163
	   33 B(3,1,6)        =    117.977757    -0.000087    -0.248970   117.728787
	   34 B(3,1,12)       =    119.121552    -0.000012    -0.028210   119.093342
	   35 B(3,5,9)        =    119.703570    -0.000117    -0.478144   119.225426
	   36 B(4,2,5)        =    117.977757    -0.000087    -0.248970   117.728787
	   37 B(4,2,11)       =    119.121552    -0.000012    -0.028210   119.093342
	   38 B(4,6,10)       =    119.703570    -0.000117    -0.478144   119.225426
	   39 B(5,2,11)       =    122.900691     0.000099     0.277181   123.177871
	   40 B(5,3,7)        =    119.650240    -0.000057    -0.181445   119.468795
	   41 B(6,1,12)       =    122.900691     0.000099     0.277181   123.177871
	   42 B(6,4,8)        =    119.650240    -0.000057    -0.181445   119.468795
	   43 B(11,15,17)     =    122.485172     0.000111     0.455135   122.940307
	   44 B(11,15,19)     =    121.294925    -0.000056    -0.231474   121.063451
	   45 B(12,16,18)     =    122.485172     0.000111     0.455135   122.940307
	   46 B(12,16,20)     =    121.294925    -0.000056    -0.231474   121.063451
	   47 B(13,11,15)     =    118.790543    -0.000059    -0.191922   118.598621
	   48 B(14,12,16)     =    118.790543    -0.000059    -0.191922   118.598621
	   49 B(17,15,19)     =    116.219903    -0.000055    -0.223661   115.996242
	   50 B(18,16,20)     =    116.219903    -0.000055    -0.223661   115.996242
	   51 D(1,3,5,2)      =      0.000000     0.000000     0.000000     0.000000
	   52 D(1,3,5,9)      =    180.000000     0.000000     0.000000   180.000000
	   53 D(1,6,4,2)      =      0.000000     0.000000     0.000000     0.000000
	   54 D(1,6,4,8)      =    180.000000     0.000000     0.000000   180.000000
	   55 D(1,12,16,18)   =      0.000000     0.000000     0.000000     0.000000
	   56 D(1,12,16,20)   =    180.000000     0.000000     0.000000   180.000000
	   57 D(2,4,6,10)     =    180.000000     0.000000     0.000000   180.000000
	   58 D(2,5,3,7)      =    180.000000     0.000000     0.000000   180.000000
	   59 D(2,11,15,17)   =      0.000000     0.000000     0.000000     0.000000
	   60 D(2,11,15,19)   =    180.000000     0.000000     0.000000   180.000000
	   61 D(3,1,6,4)      =      0.000000     0.000000     0.000000     0.000000
	   62 D(3,1,6,10)     =    180.000000     0.000000     0.000000   180.000000
	   63 D(3,1,12,14)    =      0.000000     0.000000     0.000000     0.000000
	   64 D(3,1,12,16)    =    180.000000     0.000000     0.000000   180.000000
	   65 D(3,5,2,4)      =      0.000000     0.000000     0.000000     0.000000
	   66 D(3,5,2,11)     =    180.000000     0.000000     0.000000   180.000000
	   67 D(4,2,5,9)      =    180.000000     0.000000     0.000000   180.000000
	   68 D(4,2,11,13)    =      0.000000     0.000000     0.000000     0.000000
	   69 D(4,2,11,15)    =    180.000000     0.000000     0.000000   180.000000
	   70 D(4,6,1,12)     =    180.000000     0.000000     0.000000   180.000000
	   71 D(5,2,4,6)      =      0.000000     0.000000     0.000000     0.000000
	   72 D(5,2,4,8)      =    180.000000     0.000000     0.000000   180.000000
	   73 D(5,2,11,13)    =    180.000000     0.000000     0.000000   180.000000
	   74 D(5,2,11,15)    =      0.000000     0.000000     0.000000     0.000000
	   75 D(5,3,1,6)      =      0.000000     0.000000     0.000000     0.000000
	   76 D(5,3,1,12)     =    180.000000     0.000000     0.000000   180.000000
	   77 D(6,1,3,7)      =    180.000000     0.000000     0.000000   180.000000
	   78 D(6,1,12,14)    =    180.000000     0.000000     0.000000   180.000000
	   79 D(6,1,12,16)    =      0.000000     0.000000     0.000000     0.000000
	   80 D(6,4,2,11)     =    180.000000     0.000000     0.000000   180.000000
	   81 D(7,3,1,12)     =      0.000000     0.000000     0.000000     0.000000
	   82 D(7,3,5,9)      =      0.000000     0.000000     0.000000     0.000000
	   83 D(8,4,2,11)     =      0.000000     0.000000     0.000000     0.000000
	   84 D(8,4,6,10)     =      0.000000     0.000000     0.000000     0.000000
	   85 D(9,5,2,11)     =      0.000000     0.000000     0.000000     0.000000
	   86 D(10,6,1,12)    =      0.000000     0.000000     0.000000     0.000000
	   87 D(13,11,15,17)  =    180.000000     0.000000     0.000000   180.000000
	   88 D(13,11,15,19)  =      0.000000     0.000000     0.000000     0.000000
	   89 D(14,12,16,18)  =    180.000000     0.000000     0.000000   180.000000
	   90 D(14,12,16,20)  =      0.000000     0.000000     0.000000     0.000000
	 ---------------------------------------------------------------------------
	Successfully symmetrized geometry.

  ==> Convergence Check <==

  Measures of convergence in internal coordinates in au.
  Criteria marked as inactive (o), active & met (*), and active & unmet ( ).
  --------------------------------------------------------------------------------------------- ~
   Step     Total Energy     Delta E     MAX Force     RMS Force      MAX Disp      RMS Disp    ~
  --------------------------------------------------------------------------------------------- ~
    Convergence Criteria    1.00e-06 *    3.00e-04 *             o    1.20e-03 *             o  ~
  --------------------------------------------------------------------------------------------- ~
      1    -379.77138926   -3.80e+02      4.57e-02      1.11e-02 o    7.80e-02      2.40e-02 o  ~
  ---------------------------------------------------------------------------------------------

	Writing optimization data to binary file.
	Structure for next step:
	Cartesian Geometry (in Angstrom)
	    C    -1.3865710129   0.2179459857   0.0000000000
	    C     1.3865710129  -0.2179459857   0.0000000000
	    C    -0.4908073698   1.2772262038   0.0000000000
	    C     0.4908073698  -1.2772262038   0.0000000000
	    C     0.8659803271   1.0671884270  -0.0000000000
	    C    -0.8659803271  -1.0671884270   0.0000000000
	    H    -0.8713863606   2.2860517106   0.0000000000
	    H     0.8713863606  -2.2860517106   0.0000000000
	    H     1.5293430240   1.9154828596   0.0000000000
	    H    -1.5293430240  -1.9154828596   0.0000000000
	    C     2.8499041036  -0.5057212455  -0.0000000000
	    C    -2.8499041036   0.5057212455   0.0000000000
	    H     3.1001464783  -1.5560025091  -0.0000000000
	    H    -3.1001464783   1.5560025091   0.0000000000
	    C     3.8182077572   0.3661486107  -0.0000000000
	    C    -3.8182077572  -0.3661486107  -0.0000000000
	    H     3.6488007786   1.4285562893   0.0000000000
	    H    -3.6488007786  -1.4285562893   0.0000000000
	    H     4.8480981918   0.0525296456  -0.0000000000
	    H    -4.8480981918  -0.0525296456  -0.0000000000
			--------------------------
			 OPTKING Finished Execution 
			--------------------------

    Structure for next step:
    Molecular point group: c2h
    Full point group: C2h

    Geometry (in Angstrom), charge = 0, multiplicity = 1:

    C           -1.386571012887     0.217945985674    -0.000000000000
    C            1.386571012887    -0.217945985674     0.000000000000
    C           -0.490807369801     1.277226203754     0.000000000000
    C            0.490807369801    -1.277226203754     0.000000000000
    C            0.865980327147     1.067188427001     0.000000000000
    C           -0.865980327147    -1.067188427001     0.000000000000
    H           -0.871386360622     2.286051710576     0.000000000000
    H            0.871386360622    -2.286051710576     0.000000000000
    H            1.529343023956     1.915482859635     0.000000000000
    H           -1.529343023956    -1.915482859635     0.000000000000
    C            2.849904103614    -0.505721245482    -0.000000000000
    C           -2.849904103614     0.505721245482    -0.000000000000
    H            3.100146478315    -1.556002509131     0.000000000000
    H           -3.100146478315     1.556002509131     0.000000000000
    C            3.818207757206     0.366148610651     0.000000000000
    C           -3.818207757206    -0.366148610651     0.000000000000
    H            3.648800778564     1.428556289331     0.000000000000
    H           -3.648800778564    -1.428556289331    -0.000000000000
    H            4.848098191827     0.052529645561     0.000000000000
    H           -4.848098191827    -0.052529645561     0.000000000000

gradient() will perform analytic gradient computation.

*** tstart() called on copper
*** at Tue Aug  2 20:18:24 2016


         ---------------------------------------------------------
                                   SCF
            by Justin Turney, Rob Parrish, and Andy Simmonett
                              RHF Reference
                        1 Threads,    256 MiB Core
         ---------------------------------------------------------

  ==> Geometry <==

    Molecular point group: c2h
    Full point group: C2h

    Geometry (in Angstrom), charge = 0, multiplicity = 1:

       Center              X                  Y                   Z               Mass       
    ------------   -----------------  -----------------  -----------------  -----------------
           C         -1.386571012887     0.217945985674     0.000000000000    12.000000000000
           C          1.386571012887    -0.217945985674     0.000000000000    12.000000000000
           C         -0.490807369801     1.277226203754     0.000000000000    12.000000000000
           C          0.490807369801    -1.277226203754     0.000000000000    12.000000000000
           C          0.865980327147     1.067188427001     0.000000000000    12.000000000000
           C         -0.865980327147    -1.067188427001     0.000000000000    12.000000000000
           H         -0.871386360622     2.286051710576     0.000000000000     1.007825032070
           H          0.871386360622    -2.286051710576     0.000000000000     1.007825032070
           H          1.529343023956     1.915482859635     0.000000000000     1.007825032070
           H         -1.529343023956    -1.915482859635     0.000000000000     1.007825032070
           C          2.849904103614    -0.505721245482     0.000000000000    12.000000000000
           C         -2.849904103614     0.505721245482     0.000000000000    12.000000000000
           H          3.100146478315    -1.556002509131     0.000000000000     1.007825032070
           H         -3.100146478315     1.556002509131     0.000000000000     1.007825032070
           C          3.818207757206     0.366148610651     0.000000000000    12.000000000000
           C         -3.818207757206    -0.366148610651     0.000000000000    12.000000000000
           H          3.648800778564     1.428556289331     0.000000000000     1.007825032070
           H         -3.648800778564    -1.428556289331     0.000000000000     1.007825032070
           H          4.848098191827     0.052529645561     0.000000000000     1.007825032070
           H         -4.848098191827    -0.052529645561     0.000000000000     1.007825032070

  Running in c2h symmetry.

  Rotational constants: A =      0.16224  B =      0.02359  C =      0.02060 [cm^-1]
  Rotational constants: A =   4863.98265  B =    707.24610  C =    617.46392 [MHz]
  Nuclear repulsion =  454.630524798584190

  Charge       = 0
  Multiplicity = 1
  Electrons    = 70
  Nalpha       = 35
  Nbeta        = 35

  ==> Algorithm <==

  SCF Algorithm Type is DF.
  DIIS enabled.
  MOM disabled.
  Fractional occupation disabled.
  Guess Type is READ.
  Energy threshold   = 1.00e-08
  Density threshold  = 1.00e-08
  Integral threshold = 0.00e+00

  ==> Primary Basis <==

  Basis Set: STO-3G
    Number of shells: 40
    Number of basis function: 60
    Number of Cartesian functions: 60
    Spherical Harmonics?: true
    Max angular momentum: 1

  ==> Pre-Iterations <==

   -------------------------------------------------------
    Irrep   Nso     Nmo     Nalpha   Nbeta   Ndocc  Nsocc
   -------------------------------------------------------
     Ag        25      25       0       0       0       0
     Bg         5       5       0       0       0       0
     Au         5       5       0       0       0       0
     Bu        25      25       0       0       0       0
   -------------------------------------------------------
    Total      60      60      35      35      35       0
   -------------------------------------------------------

  ==> Integral Setup <==

  ==> DFJK: Density-Fitted J/K Matrices <==

    J tasked:                  Yes
    K tasked:                  Yes
    wK tasked:                  No
    OpenMP threads:              1
    Integrals threads:           1
    Memory (MB):               183
    Algorithm:                Core
    Integral Cache:           NONE
    Schwarz Cutoff:          1E-12
    Fitting Condition:       1E-12

   => Auxiliary Basis Set <=

  Basis Set: 
    Number of shells: 240
    Number of basis function: 700
    Number of Cartesian functions: 810
    Spherical Harmonics?: true
    Max angular momentum: 3

  Minimum eigenvalue in the overlap matrix is 1.6410707157E-01.
  Using Symmetric Orthogonalization.
  SCF Guess: Reading in previously saved MOs, projecting if necessary.

  Using orbitals from previous SCF, no projection.
  Recomputing DOCC and SOCC from number of alpha and beta electrons from previous calculation.
             Ag    Bg    Au    Bu 
    DOCC [    15,    3,    2,   15 ]

  ==> Iterations <==

                           Total Energy        Delta E     RMS |[F,P]|

   @DF-RHF iter   0:  -379.96855745555496   -3.79969e+02   5.59127e-03 
   @DF-RHF iter   1:  -379.77841039828792    1.90147e-01   8.54362e-04 
   @DF-RHF iter   2:  -379.77915710049552   -7.46702e-04   1.64065e-04 DIIS
   @DF-RHF iter   3:  -379.77917734468082   -2.02442e-05   5.95787e-05 DIIS
   @DF-RHF iter   4:  -379.77918042690879   -3.08223e-06   1.44561e-05 DIIS
   @DF-RHF iter   5:  -379.77918065608702   -2.29178e-07   2.31050e-06 DIIS
   @DF-RHF iter   6:  -379.77918066474064   -8.65361e-09   1.01434e-06 DIIS
   @DF-RHF iter   7:  -379.77918066637955   -1.63891e-09   2.57377e-07 DIIS
   @DF-RHF iter   8:  -379.77918066648277   -1.03228e-10   6.64946e-08 DIIS
   @DF-RHF iter   9:  -379.77918066649028   -7.50333e-12   1.20502e-08 DIIS
   @DF-RHF iter  10:  -379.77918066649050   -2.27374e-13   9.80797e-10 DIIS

  ==> Post-Iterations <==

    Orbital Energies (a.u.)
    -----------------------

    Doubly Occupied:                                                      

       1Bu   -11.041400     1Ag   -11.041329     2Bu   -11.032717  
       2Ag   -11.032716     3Bu   -11.029347     3Ag   -11.029211  
       4Bu   -11.028665     4Ag   -11.028624     5Bu   -11.018295  
       5Ag   -11.018295     6Ag    -1.112942     6Bu    -1.036505  
       7Ag    -0.993573     7Bu    -0.964940     8Bu    -0.927133  
       8Ag    -0.808973     9Ag    -0.774202     9Bu    -0.734214  
      10Ag    -0.710171    11Ag    -0.643530    10Bu    -0.619072  
      11Bu    -0.578788    12Bu    -0.567429    12Ag    -0.565866  
      13Bu    -0.534984    14Bu    -0.510196    13Ag    -0.499559  
       1Au    -0.482498    15Bu    -0.450033    14Ag    -0.427047  
      15Ag    -0.419720     1Bg    -0.390871     2Au    -0.330992  
       2Bg    -0.288684     3Bg    -0.236319  

    Virtual:                                                              

       3Au     0.209001     4Au     0.275606     4Bg     0.322265  
       5Au     0.410087     5Bg     0.543860    16Ag     0.571165  
      16Bu     0.585505    17Bu     0.635809    17Ag     0.639335  
      18Ag     0.688261    18Bu     0.689371    19Bu     0.699165  
      19Ag     0.731849    20Bu     0.742212    20Ag     0.776914  
      21Ag     0.838643    21Bu     0.863329    22Ag     0.893369  
      22Bu     0.929677    23Bu     0.961118    23Ag     0.975479  
      24Ag     1.037979    24Bu     1.083220    25Ag     1.162556  
      25Bu     1.180350  

    Final Occupation by Irrep:
             Ag    Bg    Au    Bu 
    DOCC [    15,    3,    2,   15 ]

  Energy converged.

  @DF-RHF Final Energy:  -379.77918066649050

   => Energetics <=

    Nuclear Repulsion Energy =            454.6305247985841902
    One-Electron Energy =               -1417.0017288501330768
    Two-Electron Energy =                 582.5920233850584964
    DFT Exchange-Correlation Energy =       0.0000000000000000
    Empirical Dispersion Energy =           0.0000000000000000
    PCM Polarization Energy =               0.0000000000000000
    EFP Energy =                            0.0000000000000000
    Total Energy =                       -379.7791806664903334


  Saving occupied orbitals to File 180.

*** tstop() called on copper at Tue Aug  2 20:18:26 2016
Module time:
	user time   =       1.31 seconds =       0.02 minutes
	system time =       0.02 seconds =       0.00 minutes
	total time  =          2 seconds =       0.03 minutes
Total time:
	user time   =       5.24 seconds =       0.09 minutes
	system time =       0.04 seconds =       0.00 minutes
	total time  =          5 seconds =       0.08 minutes


Properties will be evaluated at   0.000000,   0.000000,   0.000000 Bohr

Properties computed using the SCF density matrix

  Nuclear Dipole Moment: (a.u.)
     X:     0.0000      Y:     0.0000      Z:     0.0000

  Electronic Dipole Moment: (a.u.)
     X:     0.0000      Y:     0.0000      Z:     0.0000

  Dipole Moment: (a.u.)
     X:     0.0000      Y:     0.0000      Z:     0.0000     Total:     0.0000

  Dipole Moment: (Debye)
     X:     0.0000      Y:     0.0000      Z:     0.0000     Total:     0.0000


*** tstart() called on copper
*** at Tue Aug  2 20:18:26 2016


         ------------------------------------------------------------
                                   SCF GRAD                          
                          Rob Parrish, Justin Turney,                
                       Andy Simmonett, and Alex Sokolov              
         ------------------------------------------------------------

  ==> Geometry <==

    Molecular point group: c2h
    Full point group: C2h

    Geometry (in Angstrom), charge = 0, multiplicity = 1:

       Center              X                  Y                   Z               Mass       
    ------------   -----------------  -----------------  -----------------  -----------------
           C         -1.386571012887     0.217945985674     0.000000000000    12.000000000000
           C          1.386571012887    -0.217945985674     0.000000000000    12.000000000000
           C         -0.490807369801     1.277226203754     0.000000000000    12.000000000000
           C          0.490807369801    -1.277226203754     0.000000000000    12.000000000000
           C          0.865980327147     1.067188427001     0.000000000000    12.000000000000
           C         -0.865980327147    -1.067188427001     0.000000000000    12.000000000000
           H         -0.871386360622     2.286051710576     0.000000000000     1.007825032070
           H          0.871386360622    -2.286051710576     0.000000000000     1.007825032070
           H          1.529343023956     1.915482859635     0.000000000000     1.007825032070
           H         -1.529343023956    -1.915482859635     0.000000000000     1.007825032070
           C          2.849904103614    -0.505721245482     0.000000000000    12.000000000000
           C         -2.849904103614     0.505721245482     0.000000000000    12.000000000000
           H          3.100146478315    -1.556002509131     0.000000000000     1.007825032070
           H         -3.100146478315     1.556002509131     0.000000000000     1.007825032070
           C          3.818207757206     0.366148610651     0.000000000000    12.000000000000
           C         -3.818207757206    -0.366148610651     0.000000000000    12.000000000000
           H          3.648800778564     1.428556289331     0.000000000000     1.007825032070
           H         -3.648800778564    -1.428556289331     0.000000000000     1.007825032070
           H          4.848098191827     0.052529645561     0.000000000000     1.007825032070
           H         -4.848098191827    -0.052529645561     0.000000000000     1.007825032070

  Nuclear repulsion =  454.630524798584190

  ==> Basis Set <==

  Basis Set: STO-3G
    Number of shells: 40
    Number of basis function: 60
    Number of Cartesian functions: 60
    Spherical Harmonics?: true
    Max angular momentum: 1

  ==> DFJKGrad: Density-Fitted SCF Gradients <==

    Gradient:                    1
    J tasked:                  Yes
    K tasked:                  Yes
    wK tasked:                  No
    OpenMP threads:              1
    Integrals threads:           1
    Memory (MB):               183
    Schwarz Cutoff:          0E+00
    Fitting Condition:       1E-12

   => Auxiliary Basis Set <=

  Basis Set: 
    Number of shells: 240
    Number of basis function: 700
    Number of Cartesian functions: 810
    Spherical Harmonics?: true
    Max angular momentum: 3


  -Total Gradient:
     Atom            X                  Y                   Z
    ------   -----------------  -----------------  -----------------
       1        0.005814606408    -0.001923325104     0.000000000000
       2       -0.005814606408     0.001923325104     0.000000000000
       3        0.003288535909    -0.006917431906     0.000000000000
       4       -0.003288535909     0.006917431906     0.000000000000
       5       -0.006061911408    -0.005225149731     0.000000000000
       6        0.006061911408     0.005225149731     0.000000000000
       7        0.001100628342    -0.003790684956     0.000000000000
       8       -0.001100628342     0.003790684956     0.000000000000
       9       -0.002212398823    -0.003450134895     0.000000000000
      10        0.002212398823     0.003450134895     0.000000000000
      11        0.008616075641     0.007988391408     0.000000000000
      12       -0.008616075641    -0.007988391408     0.000000000000
      13        0.000374817245     0.004500858663     0.000000000000
      14       -0.000374817245    -0.004500858663     0.000000000000
      15       -0.009060726724    -0.008665073365     0.000000000000
      16        0.009060726724     0.008665073365     0.000000000000
      17       -0.000408031356    -0.004298366789     0.000000000000
      18        0.000408031356     0.004298366789     0.000000000000
      19       -0.004254674607     0.000143915451     0.000000000000
      20        0.004254674607    -0.000143915451     0.000000000000


*** tstop() called on copper at Tue Aug  2 20:18:28 2016
Module time:
	user time   =       1.96 seconds =       0.03 minutes
	system time =       0.02 seconds =       0.00 minutes
	total time  =          2 seconds =       0.03 minutes
Total time:
	user time   =       7.20 seconds =       0.12 minutes
	system time =       0.06 seconds =       0.00 minutes
	total time  =          7 seconds =       0.12 minutes

			-----------------------------------------
			 OPTKING 2.0: for geometry optimizations 
			  - R.A. King,  Bethel University        
			-----------------------------------------

	Previous internal coordinate definitions found.
	---Fragment 1 Geometry and Gradient---
	 C          -2.6202394782        0.4118582247        0.0000000000
	 C           2.6202394782       -0.4118582247        0.0000000000
	 C          -0.9274915129        2.4136077348        0.0000000000
	 C           0.9274915129       -2.4136077348        0.0000000000
	 C           1.6364656548        2.0166938592        0.0000000000
	 C          -1.6364656548       -2.0166938592        0.0000000000
	 H          -1.6466815775        4.3200116586        0.0000000000
	 H           1.6466815775       -4.3200116586        0.0000000000
	 H           2.8900394785        3.6197380169        0.0000000000
	 H          -2.8900394785       -3.6197380169        0.0000000000
	 C           5.3855382608       -0.9556746535        0.0000000000
	 C          -5.3855382608        0.9556746535        0.0000000000
	 H           5.8584278158       -2.9404186043        0.0000000000
	 H          -5.8584278158        2.9404186043        0.0000000000
	 C           7.2153669796        0.6919205981        0.0000000000
	 C          -7.2153669796       -0.6919205981        0.0000000000
	 H           6.8952341849        2.6995801522        0.0000000000
	 H          -6.8952341849       -2.6995801522        0.0000000000
	 H           9.1615778479        0.0992666440        0.0000000000
	 H          -9.1615778479       -0.0992666440        0.0000000000
	             0.0058146064       -0.0019233251        0.0000000000
	            -0.0058146064        0.0019233251        0.0000000000
	             0.0032885359       -0.0069174319        0.0000000000
	            -0.0032885359        0.0069174319        0.0000000000
	            -0.0060619114       -0.0052251497        0.0000000000
	             0.0060619114        0.0052251497        0.0000000000
	             0.0011006283       -0.0037906850        0.0000000000
	            -0.0011006283        0.0037906850        0.0000000000
	            -0.0022123988       -0.0034501349        0.0000000000
	             0.0022123988        0.0034501349        0.0000000000
	             0.0086160756        0.0079883914        0.0000000000
	            -0.0086160756       -0.0079883914        0.0000000000
	             0.0003748172        0.0045008587        0.0000000000
	            -0.0003748172       -0.0045008587        0.0000000000
	            -0.0090607267       -0.0086650734        0.0000000000
	             0.0090607267        0.0086650734        0.0000000000
	            -0.0004080314       -0.0042983668        0.0000000000
	             0.0004080314        0.0042983668        0.0000000000
	            -0.0042546746        0.0001439155        0.0000000000
	             0.0042546746       -0.0001439155        0.0000000000

	---Fragment 1 Intrafragment Coordinates---
	 - Coordinate -           - BOHR/RAD -       - ANG/DEG -
	 R(1,3)           =         2.621526	       1.387252
	 R(1,6)           =         2.620244	       1.386573
	 R(1,12)          =         2.818264	       1.491361
	 R(2,4)           =         2.621526	       1.387252
	 R(2,5)           =         2.620244	       1.386573
	 R(2,11)          =         2.818264	       1.491361
	 R(3,5)           =         2.594497	       1.372949
	 R(3,7)           =         2.037550	       1.078225
	 R(4,6)           =         2.594497	       1.372949
	 R(4,8)           =         2.037550	       1.078225
	 R(5,9)           =         2.034993	       1.076872
	 R(6,10)          =         2.034993	       1.076872
	 R(11,13)         =         2.040302	       1.079681
	 R(11,15)         =         2.462284	       1.302985
	 R(12,14)         =         2.040302	       1.079681
	 R(12,16)         =         2.462284	       1.302985
	 R(15,17)         =         2.033023	       1.075829
	 R(15,19)         =         2.034447	       1.076583
	 R(16,18)         =         2.033023	       1.075829
	 R(16,20)         =         2.034447	       1.076583
	 B(1,3,5)         =         2.119164	     121.419172
	 B(1,3,7)         =         2.078897	     119.112033
	 B(1,6,4)         =         2.109266	     120.852041
	 B(1,6,10)        =         2.093043	     119.922533
	 B(1,12,14)       =         1.998877	     114.527216
	 B(1,12,16)       =         2.214372	     126.874163
	 B(2,4,6)         =         2.119164	     121.419172
	 B(2,4,8)         =         2.078897	     119.112033
	 B(2,5,3)         =         2.109266	     120.852041
	 B(2,5,9)         =         2.093043	     119.922533
	 B(2,11,13)       =         1.998877	     114.527216
	 B(2,11,15)       =         2.214372	     126.874163
	 B(3,1,6)         =         2.054755	     117.728787
	 B(3,1,12)        =         2.078571	     119.093342
	 B(3,5,9)         =         2.080876	     119.225426
	 B(4,2,5)         =         2.054755	     117.728787
	 B(4,2,11)        =         2.078571	     119.093342
	 B(4,6,10)        =         2.080876	     119.225426
	 B(5,2,11)        =         2.149859	     123.177871
	 B(5,3,7)         =         2.085124	     119.468795
	 B(6,1,12)        =         2.149859	     123.177871
	 B(6,4,8)         =         2.085124	     119.468795
	 B(11,15,17)      =         2.145713	     122.940307
	 B(11,15,19)      =         2.112956	     121.063451
	 B(12,16,18)      =         2.145713	     122.940307
	 B(12,16,20)      =         2.112956	     121.063451
	 B(13,11,15)      =         2.069936	     118.598621
	 B(14,12,16)      =         2.069936	     118.598621
	 B(17,15,19)      =         2.024516	     115.996242
	 B(18,16,20)      =         2.024516	     115.996242
	 D(1,3,5,2)       =         0.000000	       0.000000
	 D(1,3,5,9)       =         3.141593	     180.000000
	 D(1,6,4,2)       =         0.000000	       0.000000
	 D(1,6,4,8)       =         3.141593	     180.000000
	 D(1,12,16,18)    =         0.000000	       0.000000
	 D(1,12,16,20)    =         3.141593	     180.000000
	 D(2,4,6,10)      =         3.141593	     180.000000
	 D(2,5,3,7)       =         3.141593	     180.000000
	 D(2,11,15,17)    =         0.000000	       0.000000
	 D(2,11,15,19)    =         3.141593	     180.000000
	 D(3,1,6,4)       =         0.000000	       0.000000
	 D(3,1,6,10)      =         3.141593	     180.000000
	 D(3,1,12,14)     =         0.000000	       0.000000
	 D(3,1,12,16)     =         3.141593	     180.000000
	 D(3,5,2,4)       =         0.000000	       0.000000
	 D(3,5,2,11)      =         3.141593	     180.000000
	 D(4,2,5,9)       =         3.141593	     180.000000
	 D(4,2,11,13)     =         0.000000	       0.000000
	 D(4,2,11,15)     =         3.141593	     180.000000
	 D(4,6,1,12)      =         3.141593	     180.000000
	 D(5,2,4,6)       =         0.000000	       0.000000
	 D(5,2,4,8)       =         3.141593	     180.000000
	 D(5,2,11,13)     =         3.141593	     180.000000
	 D(5,2,11,15)     =         0.000000	       0.000000
	 D(5,3,1,6)       =         0.000000	       0.000000
	 D(5,3,1,12)      =         3.141593	     180.000000
	 D(6,1,3,7)       =         3.141593	     180.000000
	 D(6,1,12,14)     =         3.141593	     180.000000
	 D(6,1,12,16)     =         0.000000	       0.000000
	 D(6,4,2,11)      =         3.141593	     180.000000
	 D(7,3,1,12)      =         0.000000	       0.000000
	 D(7,3,5,9)       =         0.000000	       0.000000
	 D(8,4,2,11)      =         0.000000	       0.000000
	 D(8,4,6,10)      =         0.000000	       0.000000
	 D(9,5,2,11)      =         0.000000	       0.000000
	 D(10,6,1,12)     =         0.000000	       0.000000
	 D(13,11,15,17)   =         3.141593	     180.000000
	 D(13,11,15,19)   =         0.000000	       0.000000
	 D(14,12,16,18)   =         3.141593	     180.000000
	 D(14,12,16,20)   =         0.000000	       0.000000

	Current energy   :      -379.7791806665

	Energy change for the previous step:
		Projected    :        -0.0224172662
		Actual       :        -0.0077914099

	Performing BFGS update.
	Previous computed or guess Hessian on step 1.
	Steps to be used in Hessian update: 1
	Taking RFO optimization step.
	Going to follow RFO solution 1.
	Using RFO vector 1.
	Norm of target step-size    0.06410
	Projected energy change by RFO approximation:        -0.0025588751

	Back-transformation to cartesian coordinates...
	Successfully converged to displaced geometry.

	--- Internal Coordinate Step in ANG or DEG, aJ/ANG or AJ/DEG ---
	 ---------------------------------------------------------------------------
	   Coordinate                Previous        Force       Change         New 
	   ----------                --------       ------       ------       ------
	    1 R(1,3)          =      1.387252     0.094348     0.009671     1.396923
	    2 R(1,6)          =      1.386573     0.090392     0.009221     1.395794
	    3 R(1,12)         =      1.491361     0.037732     0.005200     1.496561
	    4 R(2,4)          =      1.387252     0.094348     0.009671     1.396923
	    5 R(2,5)          =      1.386573     0.090392     0.009221     1.395794
	    6 R(2,11)         =      1.491361     0.037732     0.005200     1.496561
	    7 R(3,5)          =      1.372949     0.096772     0.009360     1.382309
	    8 R(3,7)          =      1.078225     0.032421     0.003944     1.082169
	    9 R(4,6)          =      1.372949     0.096772     0.009360     1.382309
	   10 R(4,8)          =      1.078225     0.032421     0.003944     1.082169
	   11 R(5,9)          =      1.076872     0.033619     0.004093     1.080965
	   12 R(6,10)         =      1.076872     0.033619     0.004093     1.080965
	   13 R(11,13)        =      1.079681     0.035356     0.004359     1.084041
	   14 R(11,15)        =      1.302985     0.154694     0.012086     1.315071
	   15 R(12,14)        =      1.079681     0.035356     0.004359     1.084041
	   16 R(12,16)        =      1.302985     0.154694     0.012086     1.315071
	   17 R(15,17)        =      1.075829     0.034442     0.004191     1.080020
	   18 R(15,19)        =      1.076583     0.033878     0.004125     1.080708
	   19 R(16,18)        =      1.075829     0.034442     0.004191     1.080020
	   20 R(16,20)        =      1.076583     0.033878     0.004125     1.080708
	   21 B(1,3,5)        =    121.419172    -0.000017    -0.029726   121.389446
	   22 B(1,3,7)        =    119.112033     0.000033     0.097399   119.209432
	   23 B(1,6,4)        =    120.852041    -0.000019    -0.043899   120.808142
	   24 B(1,6,10)       =    119.922533     0.000039     0.143676   120.066209
	   25 B(1,12,14)      =    114.527216    -0.000123    -0.404923   114.122293
	   26 B(1,12,16)      =    126.874163     0.000028     0.077865   126.952028
	   27 B(2,4,6)        =    121.419172    -0.000017    -0.029726   121.389446
	   28 B(2,4,8)        =    119.112033     0.000033     0.097399   119.209432
	   29 B(2,5,3)        =    120.852041    -0.000019    -0.043899   120.808142
	   30 B(2,5,9)        =    119.922533     0.000039     0.143676   120.066209
	   31 B(2,11,13)      =    114.527216    -0.000123    -0.404923   114.122293
	   32 B(2,11,15)      =    126.874163     0.000028     0.077865   126.952028
	   33 B(3,1,6)        =    117.728787     0.000036     0.073625   117.802412
	   34 B(3,1,12)       =    119.093342     0.000039     0.082804   119.176146
	   35 B(3,5,9)        =    119.225426    -0.000020    -0.099777   119.125649
	   36 B(4,2,5)        =    117.728787     0.000036     0.073625   117.802412
	   37 B(4,2,11)       =    119.093342     0.000039     0.082804   119.176146
	   38 B(4,6,10)       =    119.225426    -0.000020    -0.099777   119.125649
	   39 B(5,2,11)       =    123.177871    -0.000075    -0.156429   123.021442
	   40 B(5,3,7)        =    119.468795    -0.000015    -0.067673   119.401122
	   41 B(6,1,12)       =    123.177871    -0.000075    -0.156429   123.021442
	   42 B(6,4,8)        =    119.468795    -0.000015    -0.067673   119.401122
	   43 B(11,15,17)     =    122.940307     0.000055     0.204030   123.144337
	   44 B(11,15,19)     =    121.063451     0.000058     0.184988   121.248439
	   45 B(12,16,18)     =    122.940307     0.000055     0.204030   123.144337
	   46 B(12,16,20)     =    121.063451     0.000058     0.184988   121.248439
	   47 B(13,11,15)     =    118.598621     0.000096     0.327059   118.925680
	   48 B(14,12,16)     =    118.598621     0.000096     0.327059   118.925680
	   49 B(17,15,19)     =    115.996242    -0.000113    -0.389018   115.607224
	   50 B(18,16,20)     =    115.996242    -0.000113    -0.389018   115.607224
	   51 D(1,3,5,2)      =      0.000000     0.000000     0.000000     0.000000
	   52 D(1,3,5,9)      =    180.000000     0.000000     0.000000   180.000000
	   53 D(1,6,4,2)      =      0.000000     0.000000     0.000000     0.000000
	   54 D(1,6,4,8)      =    180.000000     0.000000     0.000000   180.000000
	   55 D(1,12,16,18)   =      0.000000     0.000000     0.000000     0.000000
	   56 D(1,12,16,20)   =    180.000000     0.000000     0.000000   180.000000
	   57 D(2,4,6,10)     =    180.000000     0.000000     0.000000   180.000000
	   58 D(2,5,3,7)      =    180.000000     0.000000     0.000000   180.000000
	   59 D(2,11,15,17)   =      0.000000     0.000000     0.000000     0.000000
	   60 D(2,11,15,19)   =    180.000000     0.000000     0.000000   180.000000
	   61 D(3,1,6,4)      =      0.000000     0.000000     0.000000     0.000000
	   62 D(3,1,6,10)     =    180.000000     0.000000     0.000000   180.000000
	   63 D(3,1,12,14)    =      0.000000     0.000000     0.000000     0.000000
	   64 D(3,1,12,16)    =    180.000000     0.000000     0.000000   180.000000
	   65 D(3,5,2,4)      =      0.000000     0.000000     0.000000     0.000000
	   66 D(3,5,2,11)     =    180.000000     0.000000     0.000000   180.000000
	   67 D(4,2,5,9)      =    180.000000     0.000000     0.000000   180.000000
	   68 D(4,2,11,13)    =      0.000000     0.000000     0.000000     0.000000
	   69 D(4,2,11,15)    =    180.000000     0.000000     0.000000   180.000000
	   70 D(4,6,1,12)     =    180.000000     0.000000     0.000000   180.000000
	   71 D(5,2,4,6)      =      0.000000     0.000000     0.000000     0.000000
	   72 D(5,2,4,8)      =    180.000000     0.000000     0.000000   180.000000
	   73 D(5,2,11,13)    =    180.000000     0.000000     0.000000   180.000000
	   74 D(5,2,11,15)    =      0.000000     0.000000     0.000000     0.000000
	   75 D(5,3,1,6)      =      0.000000     0.000000     0.000000     0.000000
	   76 D(5,3,1,12)     =    180.000000     0.000000     0.000000   180.000000
	   77 D(6,1,3,7)      =    180.000000     0.000000     0.000000   180.000000
	   78 D(6,1,12,14)    =    180.000000     0.000000     0.000000   180.000000
	   79 D(6,1,12,16)    =      0.000000     0.000000     0.000000     0.000000
	   80 D(6,4,2,11)     =    180.000000     0.000000     0.000000   180.000000
	   81 D(7,3,1,12)     =      0.000000     0.000000     0.000000     0.000000
	   82 D(7,3,5,9)      =      0.000000     0.000000     0.000000     0.000000
	   83 D(8,4,2,11)     =      0.000000     0.000000     0.000000     0.000000
	   84 D(8,4,6,10)     =      0.000000     0.000000     0.000000     0.000000
	   85 D(9,5,2,11)     =      0.000000     0.000000     0.000000     0.000000
	   86 D(10,6,1,12)    =      0.000000     0.000000     0.000000     0.000000
	   87 D(13,11,15,17)  =    180.000000     0.000000     0.000000   180.000000
	   88 D(13,11,15,19)  =      0.000000     0.000000     0.000000     0.000000
	   89 D(14,12,16,18)  =    180.000000     0.000000     0.000000   180.000000
	   90 D(14,12,16,20)  =      0.000000     0.000000     0.000000     0.000000
	 ---------------------------------------------------------------------------
	Successfully symmetrized geometry.

  ==> Convergence Check <==

  Measures of convergence in internal coordinates in au.
  Criteria marked as inactive (o), active & met (*), and active & unmet ( ).
  ---------------------------------------------------------------------------------------------
   Step     Total Energy     Delta E     MAX Force     RMS Force      MAX Disp      RMS Disp   
  ---------------------------------------------------------------------------------------------
    Convergence Criteria    1.00e-06 *    3.00e-04 *             o    1.20e-03 *             o
  ---------------------------------------------------------------------------------------------
      2    -379.77918067   -7.79e-03      1.88e-02      4.37e-03 o    2.28e-02      6.76e-03 o  ~
  ---------------------------------------------------------------------------------------------

	Writing optimization data to binary file.
	Structure for next step:
	Cartesian Geometry (in Angstrom)
	    C    -1.3950190018   0.2208439657   0.0000000000
	    C     1.3950190018  -0.2208439657   0.0000000000
	    C    -0.4923144158   1.2869197799   0.0000000000
	    C     0.4923144158  -1.2869197799   0.0000000000
	    C     0.8734743361   1.0738496940   0.0000000000
	    C    -0.8734743361  -1.0738496940   0.0000000000
	    H    -0.8719022096   2.3003312693   0.0000000000
	    H     0.8719022096  -2.3003312693   0.0000000000
	    H     1.5388732389   1.9257478050   0.0000000000
	    H    -1.5388732389  -1.9257478050   0.0000000000
	    C     2.8636825915  -0.5084589892   0.0000000000
	    C    -2.8636825915   0.5084589892   0.0000000000
	    H     3.1083134256  -1.5645366633   0.0000000000
	    H    -3.1083134256   1.5645366633   0.0000000000
	    C     3.8414662783   0.3709440410   0.0000000000
	    C    -3.8414662783  -0.3709440410   0.0000000000
	    H     3.6758031839   1.4381829118   0.0000000000
	    H    -3.6758031839  -1.4381829118   0.0000000000
	    H     4.8761372815   0.0588765906   0.0000000000
	    H    -4.8761372815  -0.0588765906   0.0000000000
			--------------------------
			 OPTKING Finished Execution 
			--------------------------

    Structure for next step:
    Molecular point group: c2h
    Full point group: C2h

    Geometry (in Angstrom), charge = 0, multiplicity = 1:

    C           -1.395019001848     0.220843965725     0.000000000000
    C            1.395019001848    -0.220843965725     0.000000000000
    C           -0.492314415781     1.286919779900     0.000000000000
    C            0.492314415781    -1.286919779900     0.000000000000
    C            0.873474336146     1.073849694008     0.000000000000
    C           -0.873474336146    -1.073849694008     0.000000000000
    H           -0.871902209648     2.300331269308     0.000000000000
    H            0.871902209648    -2.300331269308     0.000000000000
    H            1.538873238874     1.925747805050     0.000000000000
    H           -1.538873238874    -1.925747805050     0.000000000000
    C            2.863682591521    -0.508458989171     0.000000000000
    C           -2.863682591521     0.508458989171     0.000000000000
    H            3.108313425585    -1.564536663275     0.000000000000
    H           -3.108313425585     1.564536663275     0.000000000000
    C            3.841466278269     0.370944041027     0.000000000000
    C           -3.841466278269    -0.370944041027     0.000000000000
    H            3.675803183935     1.438182911755     0.000000000000
    H           -3.675803183935    -1.438182911755     0.000000000000
    H            4.876137281542     0.058876590600    -0.000000000000
    H           -4.876137281542    -0.058876590600     0.000000000000

gradient() will perform analytic gradient computation.

*** tstart() called on copper
*** at Tue Aug  2 20:18:28 2016


         ---------------------------------------------------------
                                   SCF
            by Justin Turney, Rob Parrish, and Andy Simmonett
                              RHF Reference
                        1 Threads,    256 MiB Core
         ---------------------------------------------------------

  ==> Geometry <==

    Molecular point group: c2h
    Full point group: C2h

    Geometry (in Angstrom), charge = 0, multiplicity = 1:

       Center              X                  Y                   Z               Mass       
    ------------   -----------------  -----------------  -----------------  -----------------
           C         -1.395019001848     0.220843965725     0.000000000000    12.000000000000
           C          1.395019001848    -0.220843965725     0.000000000000    12.000000000000
           C         -0.492314415781     1.286919779900     0.000000000000    12.000000000000
           C          0.492314415781    -1.286919779900     0.000000000000    12.000000000000
           C          0.873474336146     1.073849694008     0.000000000000    12.000000000000
           C         -0.873474336146    -1.073849694008     0.000000000000    12.000000000000
           H         -0.871902209648     2.300331269308     0.000000000000     1.007825032070
           H          0.871902209648    -2.300331269308     0.000000000000     1.007825032070
           H          1.538873238874     1.925747805050     0.000000000000     1.007825032070
           H         -1.538873238874    -1.925747805050     0.000000000000     1.007825032070
           C          2.863682591521    -0.508458989171     0.000000000000    12.000000000000
           C         -2.863682591521     0.508458989171     0.000000000000    12.000000000000
           H          3.108313425585    -1.564536663275     0.000000000000     1.007825032070
           H         -3.108313425585     1.564536663275     0.000000000000     1.007825032070
           C          3.841466278269     0.370944041027     0.000000000000    12.000000000000
           C         -3.841466278269    -0.370944041027     0.000000000000    12.000000000000
           H          3.675803183935     1.438182911755     0.000000000000     1.007825032070
           H         -3.675803183935    -1.438182911755     0.000000000000     1.007825032070
           H          4.876137281542     0.058876590600     0.000000000000     1.007825032070
           H         -4.876137281542    -0.058876590600    -0.000000000000     1.007825032070

  Running in c2h symmetry.

  Rotational constants: A =      0.16003  B =      0.02332  C =      0.02036 [cm^-1]
  Rotational constants: A =   4797.51923  B =    699.22977  C =    610.28224 [MHz]
  Nuclear repulsion =  451.891337744090833

  Charge       = 0
  Multiplicity = 1
  Electrons    = 70
  Nalpha       = 35
  Nbeta        = 35

  ==> Algorithm <==

  SCF Algorithm Type is DF.
  DIIS enabled.
  MOM disabled.
  Fractional occupation disabled.
  Guess Type is READ.
  Energy threshold   = 1.00e-08
  Density threshold  = 1.00e-08
  Integral threshold = 0.00e+00

  ==> Primary Basis <==

  Basis Set: STO-3G
    Number of shells: 40
    Number of basis function: 60
    Number of Cartesian functions: 60
    Spherical Harmonics?: true
    Max angular momentum: 1

  ==> Pre-Iterations <==

   -------------------------------------------------------
    Irrep   Nso     Nmo     Nalpha   Nbeta   Ndocc  Nsocc
   -------------------------------------------------------
     Ag        25      25       0       0       0       0
     Bg         5       5       0       0       0       0
     Au         5       5       0       0       0       0
     Bu        25      25       0       0       0       0
   -------------------------------------------------------
    Total      60      60      35      35      35       0
   -------------------------------------------------------

  ==> Integral Setup <==

  ==> DFJK: Density-Fitted J/K Matrices <==

    J tasked:                  Yes
    K tasked:                  Yes
    wK tasked:                  No
    OpenMP threads:              1
    Integrals threads:           1
    Memory (MB):               183
    Algorithm:                Core
    Integral Cache:           NONE
    Schwarz Cutoff:          1E-12
    Fitting Condition:       1E-12

   => Auxiliary Basis Set <=

  Basis Set: 
    Number of shells: 240
    Number of basis function: 700
    Number of Cartesian functions: 810
    Spherical Harmonics?: true
    Max angular momentum: 3

  Minimum eigenvalue in the overlap matrix is 1.6902037923E-01.
  Using Symmetric Orthogonalization.
  SCF Guess: Reading in previously saved MOs, projecting if necessary.

  Using orbitals from previous SCF, no projection.
  Recomputing DOCC and SOCC from number of alpha and beta electrons from previous calculation.
             Ag    Bg    Au    Bu 
    DOCC [    15,    3,    2,   15 ]

  ==> Iterations <==

                           Total Energy        Delta E     RMS |[F,P]|

   @DF-RHF iter   0:  -379.73317524941513   -3.79733e+02   1.61336e-03 
   @DF-RHF iter   1:  -379.78030688487604   -4.71316e-02   2.40403e-04 
   @DF-RHF iter   2:  -379.78036446637111   -5.75815e-05   6.02110e-05 DIIS
   @DF-RHF iter   3:  -379.78036695981950   -2.49345e-06   2.01618e-05 DIIS
   @DF-RHF iter   4:  -379.78036730994813   -3.50129e-07   4.07613e-06 DIIS
   @DF-RHF iter   5:  -379.78036732742589   -1.74778e-08   8.21118e-07 DIIS
   @DF-RHF iter   6:  -379.78036732837495   -9.49058e-10   3.83915e-07 DIIS
   @DF-RHF iter   7:  -379.78036732860346   -2.28511e-10   8.37884e-08 DIIS
   @DF-RHF iter   8:  -379.78036732861415   -1.06866e-11   1.45420e-08 DIIS
   @DF-RHF iter   9:  -379.78036732861483   -6.82121e-13   2.89124e-09 DIIS

  ==> Post-Iterations <==

    Orbital Energies (a.u.)
    -----------------------

    Doubly Occupied:                                                      

       1Bu   -11.041327     1Ag   -11.041259     2Bu   -11.032734  
       2Ag   -11.032733     3Bu   -11.029278     3Ag   -11.029149  
       4Bu   -11.028672     4Ag   -11.028631     5Bu   -11.018268  
       5Ag   -11.018268     6Ag    -1.106229     6Bu    -1.031274  
       7Ag    -0.988012     7Bu    -0.960768     8Bu    -0.922492  
       8Ag    -0.806386     9Ag    -0.771196     9Bu    -0.733154  
      10Ag    -0.707296    11Ag    -0.638907    10Bu    -0.614871  
      11Bu    -0.577726    12Bu    -0.563611    12Ag    -0.562789  
      13Bu    -0.532433    14Bu    -0.507222    13Ag    -0.498235  
       1Au    -0.476845    15Bu    -0.448847    14Ag    -0.425865  
      15Ag    -0.418251     1Bg    -0.386364     2Au    -0.326461  
       2Bg    -0.285420     3Bg    -0.232929  

    Virtual:                                                              

       3Au     0.206647     4Au     0.273151     4Bg     0.318133  
       5Au     0.405616     5Bg     0.537100    16Ag     0.568598  
      16Bu     0.583229    17Bu     0.632287    17Ag     0.635588  
      18Ag     0.682742    18Bu     0.684642    19Bu     0.693550  
      19Ag     0.721587    20Bu     0.732152    20Ag     0.766969  
      21Ag     0.829033    21Bu     0.852835    22Ag     0.884125  
      22Bu     0.917472    23Bu     0.949148    23Ag     0.963880  
      24Ag     1.023126    24Bu     1.066267    25Ag     1.146350  
      25Bu     1.163876  

    Final Occupation by Irrep:
             Ag    Bg    Au    Bu 
    DOCC [    15,    3,    2,   15 ]

  Energy converged.

  @DF-RHF Final Energy:  -379.78036732861483

   => Energetics <=

    Nuclear Repulsion Energy =            451.8913377440908334
    One-Electron Energy =               -1411.6956105127949286
    Two-Electron Energy =                 580.0239054400892655
    DFT Exchange-Correlation Energy =       0.0000000000000000
    Empirical Dispersion Energy =           0.0000000000000000
    PCM Polarization Energy =               0.0000000000000000
    EFP Energy =                            0.0000000000000000
    Total Energy =                       -379.7803673286148296


  Saving occupied orbitals to File 180.

*** tstop() called on copper at Tue Aug  2 20:18:30 2016
Module time:
	user time   =       1.50 seconds =       0.03 minutes
	system time =       0.01 seconds =       0.00 minutes
	total time  =          2 seconds =       0.03 minutes
Total time:
	user time   =       8.90 seconds =       0.15 minutes
	system time =       0.07 seconds =       0.00 minutes
	total time  =          9 seconds =       0.15 minutes


Properties will be evaluated at   0.000000,   0.000000,   0.000000 Bohr

Properties computed using the SCF density matrix

  Nuclear Dipole Moment: (a.u.)
     X:     0.0000      Y:     0.0000      Z:     0.0000

  Electronic Dipole Moment: (a.u.)
     X:     0.0000      Y:     0.0000      Z:     0.0000

[...]
	 C           5.4090760821       -0.9622089415        0.0000000000
	 C          -5.4090760821        0.9622089415        0.0000000000
	 H           5.8730572675       -2.9582338205        0.0000000000
	 H          -5.8730572675        2.9582338205        0.0000000000
	 C           7.2525801483        0.7002218193        0.0000000000
	 C          -7.2525801483       -0.7002218193        0.0000000000
	 H           6.9360633241        2.7172098818        0.0000000000
	 H          -6.9360633241       -2.7172098818        0.0000000000
	 H           9.2097566848        0.1139250282        0.0000000000
	 H          -9.2097566848       -0.1139250282        0.0000000000
	             0.0000682499       -0.0000026389        0.0000000000
	            -0.0000682499        0.0000026389        0.0000000000
	            -0.0000068108       -0.0000488232        0.0000000000
	             0.0000068108        0.0000488232        0.0000000000
	            -0.0000017039       -0.0000372115        0.0000000000
	             0.0000017039        0.0000372115        0.0000000000
	            -0.0000066496        0.0000055167        0.0000000000
	             0.0000066496       -0.0000055167        0.0000000000
	            -0.0000027457       -0.0000069186        0.0000000000
	             0.0000027457        0.0000069186        0.0000000000
	             0.0000012482       -0.0000214339        0.0000000000
	            -0.0000012482        0.0000214339        0.0000000000
	             0.0000057822        0.0000048420        0.0000000000
	            -0.0000057822       -0.0000048420        0.0000000000
	             0.0000180623        0.0000239202        0.0000000000
	            -0.0000180623       -0.0000239202        0.0000000000
	             0.0000045395       -0.0000133319        0.0000000000
	            -0.0000045395        0.0000133319        0.0000000000
	             0.0000189902        0.0000025271        0.0000000000
	            -0.0000189902       -0.0000025271        0.0000000000

	---Fragment 1 Intrafragment Coordinates---
	 - Coordinate -           - BOHR/RAD -       - ANG/DEG -
	 R(1,3)           =         2.638142	       1.396045
	 R(1,6)           =         2.636623	       1.395241
	 R(1,12)          =         2.827530	       1.496264
	 R(2,4)           =         2.638142	       1.396045
	 R(2,5)           =         2.636623	       1.395241
	 R(2,11)          =         2.827530	       1.496264
	 R(3,5)           =         2.611480	       1.381936
	 R(3,7)           =         2.045799	       1.082590
	 R(4,6)           =         2.611480	       1.381936
	 R(4,8)           =         2.045799	       1.082590
	 R(5,9)           =         2.043391	       1.081316
	 R(6,10)          =         2.043391	       1.081316
	 R(11,13)         =         2.049242	       1.084412
	 R(11,15)         =         2.482375	       1.313616
	 R(12,14)         =         2.049242	       1.084412
	 R(12,16)         =         2.482375	       1.313616
	 R(15,17)         =         2.041672	       1.080406
	 R(15,19)         =         2.043106	       1.081165
	 R(16,18)         =         2.041672	       1.080406
	 R(16,20)         =         2.043106	       1.081165
	 B(1,3,5)         =         2.118063	     121.356050
	 B(1,3,7)         =         2.081094	     119.237912
	 B(1,6,4)         =         2.108521	     120.809378
	 B(1,6,10)        =         2.095640	     120.071333
	 B(1,12,14)       =         1.992680	     114.172180
	 B(1,12,16)       =         2.214309	     126.870543
	 B(2,4,6)         =         2.118063	     121.356050
	 B(2,4,8)         =         2.081094	     119.237912
	 B(2,5,3)         =         2.108521	     120.809378
	 B(2,5,9)         =         2.095640	     120.071333
	 B(2,11,13)       =         1.992680	     114.172180
	 B(2,11,15)       =         2.214309	     126.870543
	 B(3,1,6)         =         2.056601	     117.834571
	 B(3,1,12)        =         2.079941	     119.171851
	 B(3,5,9)         =         2.079024	     119.119289
	 B(4,2,5)         =         2.056601	     117.834571
	 B(4,2,11)        =         2.079941	     119.171851
	 B(4,6,10)        =         2.079024	     119.119289
	 B(5,2,11)        =         2.146643	     122.993578
	 B(5,3,7)         =         2.084029	     119.406038
	 B(6,1,12)        =         2.146643	     122.993578
	 B(6,4,8)         =         2.084029	     119.406038
	 B(11,15,17)      =         2.148937	     123.124999
	 B(11,15,19)      =         2.116741	     121.280319
	 B(12,16,18)      =         2.148937	     123.124999
	 B(12,16,20)      =         2.116741	     121.280319
	 B(13,11,15)      =         2.076196	     118.957278
	 B(14,12,16)      =         2.076196	     118.957278
	 B(17,15,19)      =         2.017508	     115.594682
	 B(18,16,20)      =         2.017508	     115.594682
	 D(1,3,5,2)       =         0.000000	       0.000000
	 D(1,3,5,9)       =         3.141593	     180.000000
	 D(1,6,4,2)       =         0.000000	       0.000000
	 D(1,6,4,8)       =         3.141593	     180.000000
	 D(1,12,16,18)    =         0.000000	       0.000000
	 D(1,12,16,20)    =         3.141593	     180.000000
	 D(2,4,6,10)      =         3.141593	     180.000000
	 D(2,5,3,7)       =         3.141593	     180.000000
	 D(2,11,15,17)    =         0.000000	       0.000000
	 D(2,11,15,19)    =         3.141593	     180.000000
	 D(3,1,6,4)       =         0.000000	       0.000000
	 D(3,1,6,10)      =         3.141593	     180.000000
	 D(3,1,12,14)     =         0.000000	       0.000000
	 D(3,1,12,16)     =         3.141593	     180.000000
	 D(3,5,2,4)       =         0.000000	       0.000000
	 D(3,5,2,11)      =         3.141593	     180.000000
	 D(4,2,5,9)       =         3.141593	     180.000000
	 D(4,2,11,13)     =         0.000000	       0.000000
	 D(4,2,11,15)     =         3.141593	     180.000000
	 D(4,6,1,12)      =         3.141593	     180.000000
	 D(5,2,4,6)       =         0.000000	       0.000000
	 D(5,2,4,8)       =         3.141593	     180.000000
	 D(5,2,11,13)     =         3.141593	     180.000000
	 D(5,2,11,15)     =         0.000000	       0.000000
	 D(5,3,1,6)       =         0.000000	       0.000000
	 D(5,3,1,12)      =         3.141593	     180.000000
	 D(6,1,3,7)       =         3.141593	     180.000000
	 D(6,1,12,14)     =         3.141593	     180.000000
	 D(6,1,12,16)     =         0.000000	       0.000000
	 D(6,4,2,11)      =         3.141593	     180.000000
	 D(7,3,1,12)      =         0.000000	       0.000000
	 D(7,3,5,9)       =         0.000000	       0.000000
	 D(8,4,2,11)      =         0.000000	       0.000000
	 D(8,4,6,10)      =         0.000000	       0.000000
	 D(9,5,2,11)      =         0.000000	       0.000000
	 D(10,6,1,12)     =         0.000000	       0.000000
	 D(13,11,15,17)   =         3.141593	     180.000000
	 D(13,11,15,19)   =         0.000000	       0.000000
	 D(14,12,16,18)   =         3.141593	     180.000000
	 D(14,12,16,20)   =         0.000000	       0.000000

	Current energy   :      -379.7803801506

	Energy change for the previous step:
		Projected    :        -0.0000054714
		Actual       :        -0.0000026244

	Performing BFGS update.
	Previous computed or guess Hessian on step 1.
	Steps to be used in Hessian update: 4 3
	Taking RFO optimization step.
	Going to follow RFO solution 1.
	Using RFO vector 1.
	Norm of target step-size    0.00036
	Projected energy change by RFO approximation:        -0.0000000471

	Back-transformation to cartesian coordinates...
	Successfully converged to displaced geometry.

	--- Internal Coordinate Step in ANG or DEG, aJ/ANG or AJ/DEG ---
	 ---------------------------------------------------------------------------
	   Coordinate                Previous        Force       Change         New 
	   ----------                --------       ------       ------       ------
	    1 R(1,3)          =      1.396045     0.000377     0.000054     1.396098
	    2 R(1,6)          =      1.395241     0.000334     0.000044     1.395285
	    3 R(1,12)         =      1.496264    -0.000399    -0.000069     1.496195
	    4 R(2,4)          =      1.396045     0.000377     0.000054     1.396098
	    5 R(2,5)          =      1.395241     0.000334     0.000044     1.395285
	    6 R(2,11)         =      1.496264    -0.000399    -0.000069     1.496195
	    7 R(3,5)          =      1.381936     0.000042     0.000002     1.381938
	    8 R(3,7)          =      1.082590    -0.000062    -0.000021     1.082570
	    9 R(4,6)          =      1.381936     0.000042     0.000002     1.381938
	   10 R(4,8)          =      1.082590    -0.000062    -0.000021     1.082570
	   11 R(5,9)          =      1.081316     0.000059     0.000001     1.081317
	   12 R(6,10)         =      1.081316     0.000059     0.000001     1.081317
	   13 R(11,13)        =      1.084412     0.000028    -0.000004     1.084408
	   14 R(11,15)        =      1.313616    -0.000327    -0.000029     1.313587
	   15 R(12,14)        =      1.084412     0.000028    -0.000004     1.084408
	   16 R(12,16)        =      1.313616    -0.000327    -0.000029     1.313587
	   17 R(15,17)        =      1.080406     0.000114     0.000011     1.080417
	   18 R(15,19)        =      1.081165    -0.000144    -0.000035     1.081130
	   19 R(16,18)        =      1.080406     0.000114     0.000011     1.080417
	   20 R(16,20)        =      1.081165    -0.000144    -0.000035     1.081130
	   21 B(1,3,5)        =    121.356050    -0.000001    -0.001216   121.354834
	   22 B(1,3,7)        =    119.237912     0.000001     0.002073   119.239985
	   23 B(1,6,4)        =    120.809378    -0.000001    -0.001958   120.807420
	   24 B(1,6,10)       =    120.071333     0.000000     0.001716   120.073049
	   25 B(1,12,14)      =    114.172180     0.000000    -0.000548   114.171631
	   26 B(1,12,16)      =    126.870543    -0.000001    -0.003678   126.866865
	   27 B(2,4,6)        =    121.356050    -0.000001    -0.001216   121.354834
	   28 B(2,4,8)        =    119.237912     0.000001     0.002073   119.239985
	   29 B(2,5,3)        =    120.809378    -0.000001    -0.001958   120.807420
	   30 B(2,5,9)        =    120.071333     0.000000     0.001716   120.073049
	   31 B(2,11,13)      =    114.172180     0.000000    -0.000548   114.171631
	   32 B(2,11,15)      =    126.870543    -0.000001    -0.003678   126.866865
	   33 B(3,1,6)        =    117.834571     0.000001     0.003174   117.837746
	   34 B(3,1,12)       =    119.171851    -0.000000    -0.001473   119.170378
	   35 B(3,5,9)        =    119.119289     0.000000     0.000242   119.119531
	   36 B(4,2,5)        =    117.834571     0.000001     0.003174   117.837746
	   37 B(4,2,11)       =    119.171851    -0.000000    -0.001473   119.170378
	   38 B(4,6,10)       =    119.119289     0.000000     0.000242   119.119531
	   39 B(5,2,11)       =    122.993578    -0.000001    -0.001701   122.991876
	   40 B(5,3,7)        =    119.406038    -0.000000    -0.000856   119.405181
	   41 B(6,1,12)       =    122.993578    -0.000001    -0.001701   122.991876
	   42 B(6,4,8)        =    119.406038    -0.000000    -0.000856   119.405181
	   43 B(11,15,17)     =    123.124999     0.000000     0.000864   123.125863
	   44 B(11,15,19)     =    121.280319    -0.000001    -0.002802   121.277516
	   45 B(12,16,18)     =    123.124999     0.000000     0.000864   123.125863
	   46 B(12,16,20)     =    121.280319    -0.000001    -0.002802   121.277516
	   47 B(13,11,15)     =    118.957278     0.000001     0.004226   118.961504
	   48 B(14,12,16)     =    118.957278     0.000001     0.004226   118.961504
	   49 B(17,15,19)     =    115.594682     0.000001     0.001939   115.596621
	   50 B(18,16,20)     =    115.594682     0.000001     0.001939   115.596621
	   51 D(1,3,5,2)      =      0.000000     0.000000     0.000000     0.000000
	   52 D(1,3,5,9)      =    180.000000     0.000000     0.000000   180.000000
	   53 D(1,6,4,2)      =      0.000000     0.000000     0.000000     0.000000
	   54 D(1,6,4,8)      =    180.000000     0.000000     0.000000   180.000000
	   55 D(1,12,16,18)   =      0.000000     0.000000     0.000000     0.000000
	   56 D(1,12,16,20)   =    180.000000     0.000000     0.000000   180.000000
	   57 D(2,4,6,10)     =    180.000000     0.000000     0.000000   180.000000
	   58 D(2,5,3,7)      =    180.000000     0.000000     0.000000   180.000000
	   59 D(2,11,15,17)   =      0.000000     0.000000     0.000000     0.000000
	   60 D(2,11,15,19)   =    180.000000     0.000000     0.000000   180.000000
	   61 D(3,1,6,4)      =      0.000000     0.000000     0.000000     0.000000
	   62 D(3,1,6,10)     =    180.000000     0.000000     0.000000   180.000000
	   63 D(3,1,12,14)    =      0.000000     0.000000     0.000000     0.000000
	   64 D(3,1,12,16)    =    180.000000     0.000000     0.000000   180.000000
	   65 D(3,5,2,4)      =      0.000000     0.000000     0.000000     0.000000
	   66 D(3,5,2,11)     =    180.000000     0.000000     0.000000   180.000000
	   67 D(4,2,5,9)      =    180.000000     0.000000     0.000000   180.000000
	   68 D(4,2,11,13)    =      0.000000     0.000000     0.000000     0.000000
	   69 D(4,2,11,15)    =    180.000000     0.000000     0.000000   180.000000
	   70 D(4,6,1,12)     =    180.000000     0.000000     0.000000   180.000000
	   71 D(5,2,4,6)      =      0.000000     0.000000     0.000000     0.000000
	   72 D(5,2,4,8)      =    180.000000     0.000000     0.000000   180.000000
	   73 D(5,2,11,13)    =    180.000000     0.000000     0.000000   180.000000
	   74 D(5,2,11,15)    =      0.000000     0.000000     0.000000     0.000000
	   75 D(5,3,1,6)      =      0.000000     0.000000     0.000000     0.000000
	   76 D(5,3,1,12)     =    180.000000     0.000000     0.000000   180.000000
	   77 D(6,1,3,7)      =    180.000000     0.000000     0.000000   180.000000
	   78 D(6,1,12,14)    =    180.000000     0.000000     0.000000   180.000000
	   79 D(6,1,12,16)    =      0.000000     0.000000     0.000000     0.000000
	   80 D(6,4,2,11)     =    180.000000     0.000000     0.000000   180.000000
	   81 D(7,3,1,12)     =      0.000000     0.000000     0.000000     0.000000
	   82 D(7,3,5,9)      =      0.000000     0.000000     0.000000     0.000000
	   83 D(8,4,2,11)     =      0.000000     0.000000     0.000000     0.000000
	   84 D(8,4,6,10)     =      0.000000     0.000000     0.000000     0.000000
	   85 D(9,5,2,11)     =      0.000000     0.000000     0.000000     0.000000
	   86 D(10,6,1,12)    =      0.000000     0.000000     0.000000     0.000000
	   87 D(13,11,15,17)  =    180.000000     0.000000     0.000000   180.000000
	   88 D(13,11,15,19)  =      0.000000     0.000000     0.000000     0.000000
	   89 D(14,12,16,18)  =    180.000000     0.000000     0.000000   180.000000
	   90 D(14,12,16,20)  =      0.000000     0.000000     0.000000     0.000000
	 ---------------------------------------------------------------------------
	Successfully symmetrized geometry.

  ==> Convergence Check <==

  Measures of convergence in internal coordinates in au.
  Criteria marked as inactive (o), active & met (*), and active & unmet ( ).
  ---------------------------------------------------------------------------------------------
   Step     Total Energy     Delta E     MAX Force     RMS Force      MAX Disp      RMS Disp   
  ---------------------------------------------------------------------------------------------
    Convergence Criteria    1.00e-06 *    3.00e-04 *             o    1.20e-03 *             o
  ---------------------------------------------------------------------------------------------
      5    -379.78038015   -2.62e-06      4.84e-05 *    1.46e-05 o    1.31e-04 *    3.83e-05 o  ~
  ---------------------------------------------------------------------------------------------


  **** Optimization is complete! (in 5 steps) ****

  ==> Optimization Summary <==

  Measures of convergence in internal coordinates in au.
  --------------------------------------------------------------------------------------------------------------- ~
   Step         Total Energy             Delta E       MAX Force       RMS Force        MAX Disp        RMS Disp  ~
  --------------------------------------------------------------------------------------------------------------- ~
      1    -379.771389256559   -379.771389256559      0.04569812      0.01110670      0.07795041      0.02401502  ~
      2    -379.779180666491     -0.007791409932      0.01877644      0.00436579      0.02283909      0.00675708  ~
      3    -379.780367328615     -0.001186662124      0.00248538      0.00045718      0.00384207      0.00094887  ~
      4    -379.780377526155     -0.000010197541      0.00098640      0.00019727      0.00109336      0.00033126  ~
      5    -379.780380150561     -0.000002624405      0.00004838      0.00001463      0.00013086      0.00003826  ~
  --------------------------------------------------------------------------------------------------------------- ~

	Writing optimization data to binary file.
	Final energy is   -379.7803801505606
	Final (previous) structure:
	Cartesian Geometry (in Angstrom)
	    C    -1.3940164568   0.2214734975   0.0000000000
	    C     1.3940164568  -0.2214734975   0.0000000000
	    C    -0.4918520981   1.2868561423   0.0000000000
	    C     0.4918520981  -1.2868561423   0.0000000000
	    C     0.8734379900   1.0730128931   0.0000000000
	    C    -0.8734379900  -1.0730128931   0.0000000000
	    H    -0.8710578425   2.3008606361   0.0000000000
	    H     0.8710578425  -2.3008606361   0.0000000000
	    H     1.5394765700   1.9248562192   0.0000000000
	    H    -1.5394765700  -1.9248562192   0.0000000000
	    C     2.8623597822  -0.5091790418   0.0000000000
	    C    -2.8623597822   0.5091790418   0.0000000000
	    H     3.1078880507  -1.5654299155   0.0000000000
	    H    -3.1078880507   1.5654299155   0.0000000000
	    C     3.8379001180   0.3705414277   0.0000000000
	    C    -3.8379001180  -0.3705414277   0.0000000000
	    H     3.6704066284   1.4378855404   0.0000000000
	    H    -3.6704066284  -1.4378855404   0.0000000000
	    H     4.8735933342   0.0602865284   0.0000000000
	    H    -4.8735933342  -0.0602865284   0.0000000000
	Saving final (previous) structure.
			--------------------------
			 OPTKING Finished Execution 
			--------------------------

    Final optimized geometry and variables:
    Molecular point group: c2h
    Full point group: C2h

    Geometry (in Angstrom), charge = 0, multiplicity = 1:

    C           -1.394016456790     0.221473497513     0.000000000000
    C            1.394016456790    -0.221473497513     0.000000000000
    C           -0.491852098097     1.286856142317     0.000000000000
    C            0.491852098097    -1.286856142317     0.000000000000
    C            0.873437989980     1.073012893127     0.000000000000
    C           -0.873437989980    -1.073012893127     0.000000000000
    H           -0.871057842520     2.300860636056     0.000000000000
    H            0.871057842520    -2.300860636056     0.000000000000
    H            1.539476569982     1.924856219177     0.000000000000
    H           -1.539476569982    -1.924856219177     0.000000000000
    C            2.862359782195    -0.509179041756     0.000000000000
    C           -2.862359782195     0.509179041756     0.000000000000
    H            3.107888050679    -1.565429915491     0.000000000000
    H           -3.107888050679     1.565429915491     0.000000000000
    C            3.837900117952     0.370541427750     0.000000000000
    C           -3.837900117952    -0.370541427750     0.000000000000
    H            3.670406628429     1.437885540409     0.000000000000
    H           -3.670406628429    -1.437885540409     0.000000000000
    H            4.873593334231     0.060286528429     0.000000000000
    H           -4.873593334231    -0.060286528429     0.000000000000

	Cleaning optimization helper files.

*** Psi4 exiting successfully. Buy a developer a beer!
