    -----------------------------------------------------------------------
          Psi4: An Open-Source Ab Initio Electronic Structure Package
                              Psi4 1.0.54 Driver

                          Git: Rev {master} 8d4cec3 dirty

    J. M. Turney, A. C. Simmonett, R. M. Parrish, E. G. Hohenstein,
    F. A. Evangelista, J. T. Fermann, B. J. Mintz, L. A. Burns, J. J. Wilke,
    M. L. Abrams, N. J. Russ, M. L. Leininger, C. L. Janssen, E. T. Seidl,
    W. D. Allen, H. F. Schaefer, R. A. King, E. F. Valeev, C. D. Sherrill,
    and T. D. Crawford, WIREs Comput. Mol. Sci. 2, 556-565 (2012)
    (doi: 10.1002/wcms.93)

                         Additional Contributions by
    A. E. DePrince, U. Bozkaya, A. Yu. Sokolov, D. G. A. Smith, R. Di Remigio,
    R. M. Richard, J. F. Gonthier, H. R. McAlexander, M. Saitow, and
    B. P. Pritchard
    -----------------------------------------------------------------------


    Psi4 started on: Tue Aug  2 20:23:34 2016

    Process ID:  12735
    PSI4DATADIR: /home/eric/opt/apps/python/anaconda2/share/psi4
    Memory level set to 256.000 MB

  ==> Input File <==

--------------------------------------------------------------------------
molecule water {
0 1
O
H 1 0.99
H 1 0.99 2 106.0
}

set {
    basis sto-3g
}

energy('ccsd')
--------------------------------------------------------------------------

*** tstart() called on copper
*** at Tue Aug  2 20:23:34 2016


         ---------------------------------------------------------
                                   SCF
            by Justin Turney, Rob Parrish, and Andy Simmonett
                              RHF Reference
                        1 Threads,    256 MiB Core
         ---------------------------------------------------------

  ==> Geometry <==

    Molecular point group: c2v
    Full point group: C2v

    Geometry (in Angstrom), charge = 0, multiplicity = 1:

       Center              X                  Y                   Z               Mass       
    ------------   -----------------  -----------------  -----------------  -----------------
           O          0.000000000000     0.000000000000    -0.066678531529    15.994914619560
           H          0.000000000000    -0.790649154947     0.529118341392     1.007825032070
           H          0.000000000000     0.790649154947     0.529118341392     1.007825032070

  Running in c2v symmetry.

  Rotational constants: A =     26.52958  B =     13.37869  C =      8.89367 [cm^-1]
  Rotational constants: A = 795336.70122  B = 401083.16849  C = 266625.59877 [MHz]
  Nuclear repulsion =    8.887006225878347

  Charge       = 0
  Multiplicity = 1
  Electrons    = 10
  Nalpha       = 5
  Nbeta        = 5

  ==> Algorithm <==

  SCF Algorithm Type is PK.
  DIIS enabled.
  MOM disabled.
  Fractional occupation disabled.
  Guess Type is SAD.
  Energy threshold   = 1.00e-08
  Density threshold  = 1.00e-08
  Integral threshold = 0.00e+00

  ==> Primary Basis <==

  Basis Set: STO-3G
    Number of shells: 5
    Number of basis function: 7
    Number of Cartesian functions: 7
    Spherical Harmonics?: true
    Max angular momentum: 1

  ==> Pre-Iterations <==

   -------------------------------------------------------
    Irrep   Nso     Nmo     Nalpha   Nbeta   Ndocc  Nsocc
   -------------------------------------------------------
     A1         4       4       0       0       0       0
     A2         0       0       0       0       0       0
     B1         1       1       0       0       0       0
     B2         2       2       0       0       0       0
   -------------------------------------------------------
    Total       7       7       5       5       5       0
   -------------------------------------------------------

  ==> Integral Setup <==

  Using in-core PK algorithm.
   Calculation information:
      Number of atoms:                   3
      Number of AO shells:               5
      Number of primitives:             15
      Number of atomic orbitals:         7
      Number of basis functions:         7

      Integral cutoff                 1.00e-12
      Number of threads:                 1

  Performing in-core PK
  Using 812 doubles for integral storage.
  We computed 120 shell quartets total.
  Whereas there are 120 unique shell quartets.
  ==> DiskJK: Disk-Based J/K Matrices <==

    J tasked:                  Yes
    K tasked:                  Yes
    wK tasked:                  No
    Memory (MB):               183
    Schwarz Cutoff:          1E-12

    OpenMP threads:              1
  Minimum eigenvalue in the overlap matrix is 3.6393052139E-01.
  Using Symmetric Orthogonalization.
  SCF Guess: Superposition of Atomic Densities via on-the-fly atomic UHF.

  ==> Iterations <==

                        Total Energy        Delta E     RMS |[F,P]|

   @RHF iter   0:   -74.71450368507762   -7.47145e+01   3.03943e-01 
   @RHF iter   1:   -74.91591022695485   -2.01407e-01   5.09857e-02 
   @RHF iter   2:   -74.96220225570792   -4.62920e-02   9.16936e-03 DIIS
   @RHF iter   3:   -74.96389991541258   -1.69766e-03   3.56660e-03 DIIS
   @RHF iter   4:   -74.96432624850287   -4.26333e-04   3.22652e-04 DIIS
   @RHF iter   5:   -74.96432874241408   -2.49391e-06   3.57847e-05 DIIS
   @RHF iter   6:   -74.96432876666009   -2.42460e-08   1.11355e-06 DIIS
   @RHF iter   7:   -74.96432876668044   -2.03499e-11   5.83644e-10 DIIS

  ==> Post-Iterations <==

    Orbital Energies (a.u.)
    -----------------------

    Doubly Occupied:                                                      

       1A1   -20.243755     2A1    -1.250645     1B2    -0.603166  
       3A1    -0.445470     1B1    -0.388215  

    Virtual:                                                              

       4A1     0.570748     2B2     0.708592  

    Final Occupation by Irrep:
             A1    A2    B1    B2 
    DOCC [     3,    0,    1,    1 ]

  Energy converged.

  @RHF Final Energy:   -74.96432876668044

   => Energetics <=

    Nuclear Repulsion Energy =              8.8870062258783467
    One-Electron Energy =                -121.8401691848001747
    Two-Electron Energy =                  37.9888341922413773
    DFT Exchange-Correlation Energy =       0.0000000000000000
    Empirical Dispersion Energy =           0.0000000000000000
    PCM Polarization Energy =               0.0000000000000000
    EFP Energy =                            0.0000000000000000
    Total Energy =                        -74.9643287666804383


  Saving occupied orbitals to File 180.

*** tstop() called on copper at Tue Aug  2 20:23:34 2016
Module time:
	user time   =       0.26 seconds =       0.00 minutes
	system time =       0.00 seconds =       0.00 minutes
	total time  =          0 seconds =       0.00 minutes
Total time:
	user time   =       0.26 seconds =       0.00 minutes
	system time =       0.00 seconds =       0.00 minutes
	total time  =          0 seconds =       0.00 minutes


Properties will be evaluated at   0.000000,   0.000000,   0.000000 Bohr

Properties computed using the SCF density matrix

  Nuclear Dipole Moment: (a.u.)
     X:     0.0000      Y:     0.0000      Z:     0.9917

  Electronic Dipole Moment: (a.u.)
     X:     0.0000      Y:     0.0000      Z:    -0.3333

  Dipole Moment: (a.u.)
     X:     0.0000      Y:     0.0000      Z:     0.6584     Total:     0.6584

  Dipole Moment: (Debye)
     X:     0.0000      Y:     0.0000      Z:     1.6735     Total:     1.6735

 MINTS: Wrapper to libmints.
   by Justin Turney

   Calculation information:
      Number of atoms:                   3
      Number of AO shells:               5
      Number of SO shells:               4
      Number of primitives:             15
      Number of atomic orbitals:         7
      Number of basis functions:         7

      Number of irreps:                  4
      Integral cutoff                 0.00e+00
      Number of functions per irrep: [   4    0    1    2 ]

 OEINTS: Overlap, kinetic, potential, dipole, and quadrupole integrals
         stored in file 35.

      Computing two-electron integrals...done
      Computed 138 non-zero two-electron integrals.
        Stored in file 33.


*** tstart() called on copper
*** at Tue Aug  2 20:23:34 2016


	Wfn Parameters:
	--------------------
	Wavefunction         = CCSD
	Number of irreps     = 4
	Number of MOs        = 7
	Number of active MOs = 7
	AO-Basis             = NONE
	Semicanonical        = false
	Reference            = RHF
	Print Level          = 1

	IRREP	# MOs	# FZDC	# DOCC	# SOCC	# VIRT	# FZVR
	-----	-----	------	------	------	------	------
	 A1	   4	    0	    3	    0	    1	    0
	 A2	   0	    0	    0	    0	    0	    0
	 B1	   1	    0	    1	    0	    0	    0
	 B2	   2	    0	    1	    0	    1	    0
	Transforming integrals...
	IWL integrals will be deleted.
	(OO|OO)...
	Presorting SO-basis two-electron integrals.
	Sorting File: SO Ints (nn|nn) nbuckets = 1
	Transforming the one-electron integrals and constructing Fock matrices
	Starting first half-transformation.
	Sorting half-transformed integrals.
	First half integral transformation complete.
	Starting second half-transformation.
	Two-electron integral transformation complete.
	(OO|OV)...
	Starting second half-transformation.
	Two-electron integral transformation complete.
	(OO|VV)...
	Starting second half-transformation.
	Two-electron integral transformation complete.
	(OV|OO)...
	Starting first half-transformation.
	Sorting half-transformed integrals.
	First half integral transformation complete.
	Starting second half-transformation.
	Two-electron integral transformation complete.
	(OV|OV)...
	Starting second half-transformation.
	Two-electron integral transformation complete.
	(OV|VV)...
	Starting second half-transformation.
	Two-electron integral transformation complete.
	(VV|OO)...
	Starting first half-transformation.
	Sorting half-transformed integrals.
	First half integral transformation complete.
	Starting second half-transformation.
	Two-electron integral transformation complete.
	(VV|OV)...
	Starting second half-transformation.
	Two-electron integral transformation complete.
	(VV|VV)...
	Starting second half-transformation.
	Two-electron integral transformation complete.
	Frozen core energy     =      0.00000000000000

	Size of irrep 0 of <ab|cd> integrals:      0.000 (MW) /      0.000 (MB)
	Size of irrep 1 of <ab|cd> integrals:      0.000 (MW) /      0.000 (MB)
	Size of irrep 2 of <ab|cd> integrals:      0.000 (MW) /      0.000 (MB)
	Size of irrep 3 of <ab|cd> integrals:      0.000 (MW) /      0.000 (MB)
	Total:                                     0.000 (MW) /      0.000 (MB)

	Size of irrep 0 of <ia|bc> integrals:      0.000 (MW) /      0.000 (MB)
	Size of irrep 1 of <ia|bc> integrals:      0.000 (MW) /      0.000 (MB)
	Size of irrep 2 of <ia|bc> integrals:      0.000 (MW) /      0.000 (MB)
	Size of irrep 3 of <ia|bc> integrals:      0.000 (MW) /      0.000 (MB)
	Total:                                     0.000 (MW) /      0.000 (MB)

	Size of irrep 0 of tijab amplitudes:       0.000 (MW) /      0.000 (MB)
	Size of irrep 1 of tijab amplitudes:       0.000 (MW) /      0.000 (MB)
	Size of irrep 2 of tijab amplitudes:       0.000 (MW) /      0.000 (MB)
	Size of irrep 3 of tijab amplitudes:       0.000 (MW) /      0.000 (MB)
	Total:                                     0.000 (MW) /      0.000 (MB)

	Nuclear Rep. energy          =      8.88700622587835
	SCF energy                   =    -74.96432876668044
	One-electron energy          =   -121.84016917755793
	Two-electron energy          =     37.98883418499918
	Reference energy             =    -74.96432876668040

*** tstop() called on copper at Tue Aug  2 20:23:34 2016
Module time:
	user time   =       0.01 seconds =       0.00 minutes
	system time =       0.02 seconds =       0.00 minutes
	total time  =          0 seconds =       0.00 minutes
Total time:
	user time   =       0.29 seconds =       0.00 minutes
	system time =       0.02 seconds =       0.00 minutes
	total time  =          0 seconds =       0.00 minutes

*** tstart() called on copper
*** at Tue Aug  2 20:23:34 2016

            **************************
            *                        *
            *        CCENERGY        *
            *                        *
            **************************

    Nuclear Rep. energy (wfn)     =    8.887006225878347
    SCF energy          (wfn)     =  -74.964328766680438
    Reference energy    (file100) =  -74.964328766680396

    Input parameters:
    -----------------
    Wave function   =     CCSD
    Reference wfn   =     RHF
    Brueckner       =     No
    Memory (Mbytes) =     256.0
    Maxiter         =     50
    R_Convergence   =     1.0e-07
    E_Convergence   =     1.0e-06
    Restart         =     Yes
    DIIS            =     Yes
    AO Basis        =     NONE
    ABCD            =     NEW
    Cache Level     =     2
    Cache Type      =     LOW
    Print Level     =     1
    Num. of threads =     1
    # Amps to Print =     10
    Print MP2 Amps? =     No
    Analyze T2 Amps =     No
    Print Pair Ener =     No
    Local CC        =     No
    SCS-MP2         =     False
    SCSN-MP2        =     False
    SCS-CCSD        =     False

MP2 correlation energy -0.0380499387429794
                Solving CC Amplitude Equations
                ------------------------------
  Iter             Energy              RMS        T1Diag      D1Diag    New D1Diag    D2Diag
  ----     ---------------------    ---------   ----------  ----------  ----------   --------
     0        -0.038049938742979    0.000e+00    0.000000    0.000000    0.000000    0.084424
     1        -0.048247215703520    3.643e-02    0.002308    0.006721    0.006721    0.108227
     2        -0.053265316525037    1.371e-02    0.004255    0.012893    0.012893    0.121117
     3        -0.053417256496071    2.015e-03    0.004794    0.014794    0.014794    0.122259
     4        -0.053434613644991    4.959e-04    0.004963    0.015384    0.015384    0.122319
     5        -0.053428530631283    5.725e-05    0.004979    0.015438    0.015438    0.122285
     6        -0.053429662501183    9.454e-06    0.004981    0.015445    0.015445    0.122285
     7        -0.053429373520435    1.908e-06    0.004981    0.015445    0.015445    0.122284
     8        -0.053429416028089    3.644e-07    0.004981    0.015446    0.015446    0.122284
     9        -0.053429411460733    7.030e-08    0.004981    0.015446    0.015446    0.122284

    Iterations converged.


    Largest TIA Amplitudes:
              2   0         0.0154430091
              4   1        -0.0030951184
              1   0         0.0002756566
              0   0         0.0000358413

    Largest TIjAb Amplitudes:
      4   4   1   1        -0.0817949732
      2   2   0   0        -0.0529957776
      2   4   0   1         0.0520900783
      4   2   1   0         0.0520900783
      4   4   0   0        -0.0473664816
      2   2   1   1        -0.0442844406
      2   4   1   0         0.0389423306
      4   2   0   1         0.0389423306
      1   2   0   0         0.0351370418
      2   1   0   0         0.0351370418

    SCF energy       (wfn)                    =  -74.964328766680438
    Reference energy (file100)                =  -74.964328766680396

    Opposite-spin MP2 correlation energy      =   -0.035863387548477
    Same-spin MP2 correlation energy          =   -0.002186551194503
    MP2 correlation energy                    =   -0.038049938742979
      * MP2 total energy                      =  -75.002378705423382

    Opposite-spin CCSD correlation energy     =   -0.051596218020152
    Same-spin CCSD correlation energy         =   -0.001833193430673
    CCSD correlation energy                   =   -0.053429411460733
      * CCSD total energy                     =  -75.017758178141122


*** tstop() called on copper at Tue Aug  2 20:23:35 2016
Module time:
	user time   =       0.07 seconds =       0.00 minutes
	system time =       0.07 seconds =       0.00 minutes
	total time  =          1 seconds =       0.02 minutes
Total time:
	user time   =       0.36 seconds =       0.01 minutes
	system time =       0.09 seconds =       0.00 minutes
	total time  =          1 seconds =       0.02 minutes

*** Psi4 exiting successfully. Buy a developer a beer!
