
                                 *****************
                                 * O   R   C   A *
                                 *****************

           --- An Ab Initio, DFT and Semiempirical electronic structure package ---

                  ########################################################
                  #                         -***-                        #
                  #               Developed by Frank Neese               #
                  #           Lehrstuhl fuer Theoretische Chemie         #
                  #  Institut fuer Physikalische und Theoretische Chemie #
                  #                    Universitaet Bonn                 #
                  #                        Germany                       #
                  #                theochem@thch.uni-bonn.de             #
                  #                                                      #
                  #                   All rights reserved                #
                  #                         -***-                        #
                  ########################################################


                         Program Version 2.8 -    STABLE   -
                                (SVN: $Rev: 2360$)
                ($Date: 2011-02-22 17:06:16 +0100 (Tue, 22 Feb 2011) $)


 With contributions from (in alphabetic order):
   Ute Becker             : Parallelization
   Dmitry Ganyushin       : Spin-Orbit,Spin-Spin,Magnetic field MRCI
   Andreas Hansen         : Spin unrestricted coupled pair/coupled cluster methods
   Dimitrios Liakos       : Parallel MDCI
   Christian Kollmar      : KDIIS, orbital optimized coupled pair methods
   Simone Kossmann        : meta GGA functionals, improved MP2 methods
   Taras Petrenko         : TD-DFT gradient, Resonance Raman, ABS, fluorescence, XAS, NRVS
   Christoph Reimann      : Effective Core Potentials
   Christoph Riplinger    : Improved optimizer, TS searches, QM/MM
   Kantharuban Sivalingam : CASSCF and multireference perturbation theory
   Boris Wezisla          : Elementary symmetry handling
   Frank Wennmohs         : Technical directorship


 We gratefully acknowledge several collegues who have allowed us to
 interface, adapt or use parts of their codes:
   Stefan Grimme                                : VdW corrections, initial TS optimization
                                                  and many helpful discussions
   Ed Valeev                                    : LibInt (2-el integral package)
   Andreas Klamt, Michael Diedenhofen           : otool_cosmo (COSMO solvation model)
   Frank Weinhold                               : gennbo (NPA and NBO analysis)


================================================================================
                                        WARNINGS
                       Please study these warnings very carefully!
================================================================================

WARNING: Gradients are needed - forcing at least TightSCF


INFO   : the flag for use of LIBINT has been found!

================================================================================
                                       INPUT FILE
================================================================================
NAME = /home/xaverw/rechnungen/scratch/dvb_raman.inp
|  1> # Raman frequency single point restricted B3LYP/sto-3g calc
|  2> ! RKS STO-3G B3LYP UseSym NumFreq
|  3> %elprop Polar 1
|  4> end
|  5> * xyz 0 1
|  6>  C                  0.27867948   -1.36683162    0.00000000
|  7>  C                  1.32303041   -0.44173575    0.00000000
|  8>  C                  1.04434506    0.92484978    0.00000000
|  9>  C                 -0.27867948    1.36683162    0.00000000
| 10>  C                 -1.32303041    0.44173575    0.00000000
| 11>  C                 -1.04434506   -0.92484978    0.00000000
| 12>  H                  2.36595443   -0.79037726    0.00000000
| 13>  H                  1.86746094    1.65407997    0.00000000
| 14>  H                 -2.36595443    0.79037726    0.00000000
| 15>  H                 -1.86746094   -1.65407997    0.00000000
| 16>  C                 -0.58659169    2.87589931    0.00000000
| 17>  C                  0.36350188    3.80076420    0.00000000
| 18>  H                 -1.65647768    3.12394312    0.00000000
| 19>  H                  0.14429560    4.87693235    0.00000000
| 20>  H                  1.43338788    3.55272039    0.00000000
| 21>  C                  0.58659169   -2.87589931    0.00000000
| 22>  C                 -0.36350188   -3.80076420    0.00000000
| 23>  H                  1.65647768   -3.12394312    0.00000000
| 24>  H                 -0.14429560   -4.87693235    0.00000000
| 25>  H                 -1.43338788   -3.55272039    0.00000000
| 26> *
| 27> 
| 28> 
| 29>                          ****END OF INPUT****
================================================================================

------------------------------------------------------------------------------
                            SYMMETRY HANDLING SETUP
------------------------------------------------------------------------------

------------------
SYMMETRY DETECTION
------------------
Preparing Data                    ... done
Detection Threshold:    SymThresh ... 1.0000e-04

Point Group will now be determined:
Moving molecule to center of mass ... done

POINT GROUP                       ... C2h

The coordinates will now be cleaned:
Moving to standard coord frame    ... done
(Changed main axis to z and atom 0 to xz plane)
Structure cleanup requested       ... yes
Selected point group              ... C2h
Cleaning Tolerance      SymThresh ... 1.0000e-04

Some missing point group data is constructed:
Constructing symmetry operations  ... done
Creating atom transfer table      ... done
Creating asymmetric unit          ... done

Cleaning coordinates              ... done

-----------------------------------------------
SYMMETRY-PERFECTED CARTESIAN COORDINATES (A.U.)
-----------------------------------------------
   0 C     2.63607715   0.00000000   0.00000000 
   1 C     1.31740777   2.28299936   0.00000000 
   2 C    -1.31821593   2.28289559   0.00000000 
   3 C    -2.63607715  -0.00000000   0.00000000 
   4 C    -1.31740777  -2.28299936   0.00000000 
   5 C     1.31821593  -2.28289559   0.00000000 
   6 H     2.35669238   4.08249013   0.00000000 
   7 H    -2.35773573   4.08230509   0.00000000 
   8 H    -2.35669238  -4.08249013   0.00000000 
   9 H     2.35773573  -4.08230509   0.00000000 
  10 C    -5.54655919  -0.00043072   0.00000000 
  11 C    -6.90038530   2.10795152   0.00000000 
  12 H    -6.40975269  -1.88782318   0.00000000 
  13 H    -8.97580815   2.10834154   0.00000000 
  14 H    -6.03719180   3.99534399   0.00000000 
  15 C     5.54655919   0.00043072   0.00000000 
  16 C     6.90038530  -2.10795152   0.00000000 
  17 H     6.40975269   1.88782318   0.00000000 
  18 H     8.97580815  -2.10834154   0.00000000 
  19 H     6.03719180  -3.99534399   0.00000000 

------------------
SYMMETRY REDUCTION
------------------
ORCA supports only abelian point groups.
It is now checked, if the determined point group is supported:
Point Group ( C2h   ) is          ... supported

(Re)building abelian point group:
Creating Character Table          ... done
Making direct product table       ... done

----------------------
ASYMMETRIC UNIT IN C2h
----------------------
  #  AT     MASS              COORDS (A.U.)             BAS
   0 C   12.0110   2.63607715   0.00000000   0.00000000   0
   1 C   12.0110   1.31740777   2.28299936   0.00000000   0
   2 C   12.0110  -1.31821593   2.28289559   0.00000000   0
   6 H    1.0080   2.35669238   4.08249013   0.00000000   0
   7 H    1.0080  -2.35773573   4.08230509   0.00000000   0
  10 C   12.0110  -5.54655919  -0.00043072   0.00000000   0
  11 C   12.0110  -6.90038530   2.10795152   0.00000000   0
  12 H    1.0080  -6.40975269  -1.88782318   0.00000000   0
  13 H    1.0080  -8.97580815   2.10834154   0.00000000   0
  14 H    1.0080  -6.03719180   3.99534399   0.00000000   0

----------------------
SYMMETRY ADOPTED BASIS
----------------------
The coefficients for the symmetry adopted linear combinations (SALCS)
of basis functions will now be computed:
Number of basis functions         ...    60
Preparing memory                  ... done
Constructing Gamma(red)           ... done
Reducing Gamma(red)               ... done
Constructing SALCs                ... done
Checking SALC integrity           ... nothing suspicious
Normalizing SALCs                 ... done

Storing the symmetry object:
Symmetry file                     ... /home/xaverw/rechnungen/scratch/dvb_raman.sym.tmp
Writing symmetry information      ... done

                       ****************************
                       * Single Point Calculation *
                       ****************************

---------------------------------
CARTESIAN COORDINATES (ANGSTROEM)
---------------------------------
  C      1.394952    0.000000    0.000000
  C      0.697142    1.208111    0.000000
  C     -0.697570    1.208056    0.000000
  C     -1.394952   -0.000000    0.000000
  C     -0.697142   -1.208111    0.000000
  C      0.697570   -1.208056    0.000000
  H      1.247108    2.160361    0.000000
  H     -1.247660    2.160263    0.000000
  H     -1.247108   -2.160361    0.000000
  H      1.247660   -2.160263    0.000000
  C     -2.935113   -0.000228    0.000000
  C     -3.651527    1.115480    0.000000
  H     -3.391895   -0.998993    0.000000
  H     -4.749793    1.115686    0.000000
  H     -3.194744    2.114245    0.000000
  C      2.935113    0.000228    0.000000
  C      3.651527   -1.115480    0.000000
  H      3.391895    0.998993    0.000000
  H      4.749793   -1.115686    0.000000
  H      3.194744   -2.114245    0.000000

----------------------------
CARTESIAN COORDINATES (A.U.)
----------------------------
  NO LB      ZA    FRAG    MASS        X           Y           Z
   0 C     6.0000    0    12.011    2.636077    0.000000    0.000000
   1 C     6.0000    0    12.011    1.317408    2.282999    0.000000
   2 C     6.0000    0    12.011   -1.318216    2.282896    0.000000
   3 C     6.0000    0    12.011   -2.636077   -0.000000    0.000000
   4 C     6.0000    0    12.011   -1.317408   -2.282999    0.000000
   5 C     6.0000    0    12.011    1.318216   -2.282896    0.000000
   6 H     1.0000    0     1.008    2.356692    4.082490    0.000000
   7 H     1.0000    0     1.008   -2.357736    4.082305    0.000000
   8 H     1.0000    0     1.008   -2.356692   -4.082490    0.000000
   9 H     1.0000    0     1.008    2.357736   -4.082305    0.000000
  10 C     6.0000    0    12.011   -5.546559   -0.000431    0.000000
  11 C     6.0000    0    12.011   -6.900385    2.107952    0.000000
  12 H     1.0000    0     1.008   -6.409753   -1.887823    0.000000
  13 H     1.0000    0     1.008   -8.975808    2.108342    0.000000
  14 H     1.0000    0     1.008   -6.037192    3.995344    0.000000
  15 C     6.0000    0    12.011    5.546559    0.000431    0.000000
  16 C     6.0000    0    12.011    6.900385   -2.107952    0.000000
  17 H     1.0000    0     1.008    6.409753    1.887823    0.000000
  18 H     1.0000    0     1.008    8.975808   -2.108342    0.000000
  19 H     1.0000    0     1.008    6.037192   -3.995344    0.000000

--------------------------------
INTERNAL COORDINATES (ANGSTROEM)
--------------------------------
 C      0   0   0   0.000000     0.000     0.000
 C      1   0   0   1.395160     0.000     0.000
 C      2   1   0   1.394712   120.009     0.000
 C      3   2   1   1.394899   119.999     0.000
 C      4   3   2   1.395160   119.992     0.000
 C      5   4   3   1.394712   120.009     0.000
 H      2   1   3   1.099655   119.981   180.000
 H      3   2   1   1.099680   120.013   180.000
 H      5   4   3   1.099655   119.981   180.000
 H      6   5   4   1.099680   120.013   180.000
 C      4   3   2   1.540161   120.005   180.000
 C     11   4   3   1.325916   122.697     0.000
 H     11   4   3   1.098263   114.585   180.000
 H     12  11   4   1.098266   122.716   180.000
 H     12  11   4   1.098263   122.718     0.000
 C      1   2   3   1.540161   120.002   180.000
 C     16   1   2   1.325916   122.697   180.000
 H     16   1   2   1.098263   114.585     0.000
 H     17  16   1   1.098266   122.716   180.000
 H     17  16   1   1.098263   122.718     0.000

---------------------------
INTERNAL COORDINATES (A.U.)
---------------------------
 C      0   0   0   0.000000     0.000     0.000
 C      1   0   0   2.636470     0.000     0.000
 C      2   1   0   2.635624   120.009     0.000
 C      3   2   1   2.635976   119.999     0.000
 C      4   3   2   2.636470   119.992     0.000
 C      5   4   3   2.635624   120.009     0.000
 H      2   1   3   2.078047   119.981   180.000
 H      3   2   1   2.078094   120.013   180.000
 H      5   4   3   2.078047   119.981   180.000
 H      6   5   4   2.078094   120.013   180.000
 C      4   3   2   2.910482   120.005   180.000
 C     11   4   3   2.505618   122.697     0.000
 H     11   4   3   2.075416   114.585   180.000
 H     12  11   4   2.075423   122.716   180.000
 H     12  11   4   2.075416   122.718     0.000
 C      1   2   3   2.910482   120.002   180.000
 C     16   1   2   2.505618   122.697   180.000
 H     16   1   2   2.075416   114.585     0.000
 H     17  16   1   2.075423   122.716   180.000
 H     17  16   1   2.075416   122.718     0.000

---------------------
BASIS SET INFORMATION
---------------------
There are 2 groups of distinct atoms

 Group   1 Type C   : 6s3p contracted to 2s1p pattern {33/3}
 Group   2 Type H   : 3s contracted to 1s pattern {3}

Atom   0C    basis set group =>   1
Atom   1C    basis set group =>   1
Atom   2C    basis set group =>   1
Atom   3C    basis set group =>   1
Atom   4C    basis set group =>   1
Atom   5C    basis set group =>   1
Atom   6H    basis set group =>   2
Atom   7H    basis set group =>   2
Atom   8H    basis set group =>   2
Atom   9H    basis set group =>   2
Atom  10C    basis set group =>   1
Atom  11C    basis set group =>   1
Atom  12H    basis set group =>   2
Atom  13H    basis set group =>   2
Atom  14H    basis set group =>   2
Atom  15C    basis set group =>   1
Atom  16C    basis set group =>   1
Atom  17H    basis set group =>   2
Atom  18H    basis set group =>   2
Atom  19H    basis set group =>   2
------------------------------------------------------------------------------
                           ORCA GTO INTEGRAL CALCULATION
------------------------------------------------------------------------------

                         BASIS SET STATISTICS AND STARTUP INFO

 # of primitive gaussian shells          ...  120
 # of primitive gaussian functions       ...  180
 # of contracted shell                   ...   40
 # of contracted basis functions         ...   60
 Highest angular momentum                ...    1
 Maximum contraction depth               ...    3
 Integral package used                   ... LIBINT
 Integral threshhold             Thresh  ...  2.500e-11
 Primitive cut-off               TCut    ...  2.500e-12


                              INTEGRAL EVALUATION

 One electron integrals                  ... done
 Pre-screening matrix                    ... done
 Shell pair data                         ... done (   0.001 sec)

-------------------------------------------------------------------------------
                                 ORCA SCF
-------------------------------------------------------------------------------

------------
SCF SETTINGS
------------
Hamiltonian:
 Density Functional     Method          .... DFT(GTOs)
 Exchange Functional    Exchange        .... B88
   X-Alpha parameter    XAlpha          ....  0.666667
   Becke's b parameter  XBeta           ....  0.004200
 Correlation Functional Correlation     .... LYP
 LDA part of GGA corr.  LDAOpt          .... VWN-5
 Gradients option       PostSCFGGA      .... off
 Hybrid DFT is turned on
   Fraction HF Exchange ScalHFX         ....  0.200000
   Scaling of DF-GGA-X  ScalDFX         ....  0.720000
   Scaling of DF-GGA-C  ScalDFC         ....  0.810000
   Scaling of DF-LDA-C  ScalLDAC        ....  1.000000
   Perturbative correction              ....  0.000000


General Settings:
 Integral files         IntName         .... /home/xaverw/rechnungen/scratch/dvb_raman
 Hartree-Fock type      HFTyp           .... RHF
 Total Charge           Charge          ....    0
 Multiplicity           Mult            ....    1
 Number of Electrons    NEL             ....   70
 Basis Dimension        Dim             ....   60
 Nuclear Repulsion      ENuc            ....    450.0061360697 Eh

 Symmetry handling      UseSym         .... ON
 Point group                           .... C2h
 Used point group                      .... C2h
 Number of irreps                      .... 4
   Irrep   Ag has   25 symmetry adapted basis functions (ofs=   0)
   Irrep   Bg has    5 symmetry adapted basis functions (ofs=  25)
   Irrep   Au has    5 symmetry adapted basis functions (ofs=  30)
   Irrep   Bu has   25 symmetry adapted basis functions (ofs=  35)

Convergence Acceleration:
 DIIS                   CNVDIIS         .... on
   Start iteration      DIISMaxIt       ....    12
   Startup error        DIISStart       ....  0.200000
   # of expansion vecs  DIISMaxEq       ....     5
   Bias factor          DIISBfac        ....   1.050
   Max. coefficient     DIISMaxC        ....  10.000
 Newton-Raphson         CNVNR           .... off
 SOSCF                  CNVSOSCF        .... on
   Start iteration      SOSCFMaxIt      ....   150
   Startup grad/error   SOSCFStart      ....  0.003300
 Level Shifting         CNVShift        .... on
   Level shift para.    LevelShift      ....    0.2500
   Turn off err/grad.   ShiftErr        ....    0.0010
 Zerner damping         CNVZerner       .... off
 Static damping         CNVDamp         .... on
   Fraction old density DampFac         ....    0.7000
   Max. Damping (<1)    DampMax         ....    0.9800
   Min. Damping (>=0)   DampMin         ....    0.0000
   Turn off err/grad.   DampErr         ....    0.1000
 Fernandez-Rico         CNVRico         .... off

SCF Procedure:
 Maximum # iterations   MaxIter         ....   125
 SCF integral mode      SCFMode         .... Direct
   Integral package                     .... LIBINT
 Reset frequeny         DirectResetFreq ....    20
 Integral Threshold     Thresh          ....  2.500e-11 Eh
 Primitive CutOff       TCut            ....  2.500e-12 Eh

Convergence Tolerance:
 Convergence Check Mode ConvCheckMode   .... Total+1el-Energy
 Energy Change          TolE            ....  1.000e-08 Eh
 1-El. energy change                    ....  1.000e-05 Eh
 Orbital Gradient       TolG            ....  1.000e-05
 Orbital Rotation angle TolX            ....  1.000e-05
 DIIS Error             TolErr          ....  5.000e-07


Diagonalization of the overlap matrix:
Smallest eigenvalue                        ... 1.714e-01
Time for diagonalization                   ...    0.002 sec
Time for construction of square roots      ...    0.001 sec
Producing symmetrization matrix            ... done (   0.001 sec)
Total time needed                          ...    0.004 sec

-------------------
DFT GRID GENERATION
-------------------

General Integration Accuracy     IntAcc      ...  4.340
Radial Grid Type                 RadialGrid  ... Gauss-Chebyshev
Angular Grid (max. acc.)         AngularGrid ... Lebedev-110
Angular grid pruning method      GridPruning ... 3 (G Style)
Weight generation scheme         WeightScheme... Becke
Basis function cutoff            BFCut       ...    1.0000e-11
Integration weight cutoff        WCut        ...    1.0000e-14
Grids for H and He will be reduced by one unit

# of grid points (after initial pruning)     ...  24500 (   0.0 sec)
# of grid points (after weights+screening)   ...  22502 (   0.3 sec)
nearest neighbour list constructed           ...    0.0 sec
Grid point re-assignment to atoms done       ...    0.0 sec
Grid point division into batches done        ...    0.0 sec
Reduced shell lists constructed in    0.3 sec

Total number of grid points                  ...    22502
Total number of batches                      ...      362
Average number of points per batch           ...       62
Average number of grid points per atom       ...     1125
Average number of shells per batch           ...    27.33 (68.31%)
Average number of basis functions per batch  ...    44.65 (74.42%)
Average number of large shells per batch     ...    20.85 (76.29%)
Average number of large basis fcns per batch ...    34.99 (78.36%)
Maximum spatial batch extension              ...  18.95, 20.84, 44.34 au
Average spatial batch extension              ...   3.22,  3.90,  5.33 au

Time for grid setup =    0.596 sec

------------------------------
INITIAL GUESS: MODEL POTENTIAL
------------------------------
Loading Hartree-Fock densities                     ... done
Calculating cut-offs                               ... done
Setting up the integral package                    ... done
Initializing the effective Hamiltonian             ... done
Starting the Coulomb interaction                   ... done (   0.1 sec)
Reading the grid                                   ... done
Mapping shells                                     ... done
Starting the XC term evaluation                    ... done (   1.3 sec)
  promolecular density results
     # of electrons  =     69.993220687
     EX              =    -54.296898558
     EC              =     -2.299010595
     EX+EC           =    -56.595909153
done (   0.0 sec)
Diagonalizing the Hamiltonian                      ... done (   0.0 sec)
Back transforming the eigenvectors                 ... done (   0.0 sec)
Now organizing SCF variables                       ... done
The symmetry of the initial guess is 1-Ag
Irrep occupations for operator 0
    Ag -   15
    Bg -    3
    Au -    2
    Bu -   15
                      ------------------
                      INITIAL GUESS DONE (   1.6 sec)
                      ------------------
--------------
SCF ITERATIONS
--------------
ITER       Energy         Delta-E        Max-DP      RMS-DP      [F,P]     Damp
               ***  Starting incremental Fock matrix formation  ***
  0   -381.9867779369   0.000000000000 0.05707535  0.00425410  0.0807540 0.7000
  1   -382.0079987003  -0.021220763376 0.02895905  0.00220039  0.0411442 0.7000
                               ***Turning on DIIS***
  2   -382.0194217187  -0.011423018362 0.05111277  0.00390576  0.0218495 0.0000
  3   -382.0403768845  -0.020955165816 0.01981855  0.00147946  0.0118423 0.0000
                      *** Initiating the SOSCF procedure ***
                           *** Shutting down DIIS ***
                      *** Re-Reading the Fockian *** 
                      *** Removing any level shift *** 
ITER      Energy       Delta-E        Grad      Rot      Max-DP    RMS-DP
  4   -382.04168350  -0.0013066126  0.000446  0.000446  0.002708  0.000152
               *** Restarting incremental Fock matrix formation ***
  5   -382.04168455  -0.0000010551  0.000584  0.001782  0.004923  0.000211
  6   -382.04167321   0.0000113454  0.001090  0.001229  0.003399  0.000136
  7   -382.04169026  -0.0000170572  0.000075  0.000168  0.000432  0.000025
  8   -382.04169019   0.0000000752  0.000098  0.000099  0.000254  0.000014
  9   -382.04169037  -0.0000001848  0.000003  0.000005  0.000012  0.000001
                  ***Gradient check signals convergence***
              ***Rediagonalizing the Fockian in SOSCF/NRSCF***

               *****************************************************
               *                     SUCCESS                       *
               *           SCF CONVERGED AFTER  10 CYCLES          *
               *****************************************************

Setting up the final grid:

General Integration Accuracy     IntAcc      ...  4.670
Radial Grid Type                 RadialGrid  ... Gauss-Chebyshev
Angular Grid (max. acc.)         AngularGrid ... Lebedev-302
Angular grid pruning method      GridPruning ... 3 (G Style)
Weight generation scheme         WeightScheme... Becke
Basis function cutoff            BFCut       ...    1.0000e-11
Integration weight cutoff        WCut        ...    1.0000e-14
Grids for H and He will be reduced by one unit

# of grid points (after initial pruning)     ...  96060 (   0.2 sec)
# of grid points (after weights+screening)   ...  86996 (   1.0 sec)
nearest neighbour list constructed           ...    0.0 sec
Grid point re-assignment to atoms done       ...    0.0 sec
Grid point division into batches done        ...    0.4 sec
Reduced shell lists constructed in    1.3 sec

Total number of grid points                  ...    86996
Total number of batches                      ...     1370
Average number of points per batch           ...       63
Average number of grid points per atom       ...     4350
Average number of shells per batch           ...    25.00 (62.50%)
Average number of basis functions per batch  ...    41.06 (68.44%)
Average number of large shells per batch     ...    18.54 (74.16%)
Average number of large basis fcns per batch ...    31.26 (76.14%)
Maximum spatial batch extension              ...  17.61, 16.61, 24.37 au
Average spatial batch extension              ...   2.27,  2.45,  2.81 au

Final grid set up in    2.6 sec
Final integration                            ... done (   1.3 sec)
Change in XC energy                          ...    -0.000961436
Integrated number of electrons               ...    69.999494275
Previous integrated no of electrons          ...    69.995549526

----------------
TOTAL SCF ENERGY
----------------

Total Energy       :         -382.04265181 Eh          -10395.90907 eV

Components:
Nuclear Repulsion  :          450.00613607 Eh           12245.28950 eV
Electronic Energy  :         -832.04878788 Eh          -22641.19857 eV

One Electron Energy:        -1408.66296962 Eh          -38331.66815 eV
Two Electron Energy:          576.61418174 Eh           15690.46957 eV

Virial components:
Potential Energy   :         -758.06959457 Eh          -20628.12238 eV
Kinetic Energy     :          376.02694276 Eh           10232.21331 eV
Virial Ratio       :            2.01599808


DFT components:
N(Alpha)           :       34.999747137516 electrons
N(Beta)            :       34.999747137516 electrons
N(Total)           :       69.999494275033 electrons
E(X)               :      -43.840634511097 Eh       
E(C)               :       -2.721485837729 Eh       
E(XC)              :      -46.562120348826 Eh       

---------------
SCF CONVERGENCE
---------------

  Last Energy change         ...   -4.6197e-10  Tolerance :   1.0000e-08
  Last MAX-Density change    ...    4.8189e-06  Tolerance :   1.0000e-07
  Last RMS-Density change    ...    3.3161e-07  Tolerance :   5.0000e-09
  Last Orbital Gradient      ...    1.9273e-06  Tolerance :   1.0000e-05
  Last Orbital Rotation      ...    2.1307e-06  Tolerance :   1.0000e-05

             **** THE GBW FILE WAS UPDATED (/home/xaverw/rechnungen/scratch/dvb_raman.gbw) ****
             **** DENSITY FILE WAS UPDATED (/home/xaverw/rechnungen/scratch/dvb_raman.scfp.tmp) ****
             **** ENERGY FILE WAS UPDATED (/home/xaverw/rechnungen/scratch/dvb_raman.en.tmp) ****
----------------
ORBITAL ENERGIES
----------------

  NO   OCC          E(Eh)            E(eV)    Irrep 
   0   2.0000     -10.013929      -272.4929    1-Bu
   1   2.0000     -10.013864      -272.4911    1-Ag
   2   2.0000     -10.003509      -272.2093    2-Bu
   3   2.0000     -10.003508      -272.2093    2-Ag
   4   2.0000     -10.002743      -272.1885    3-Bu
   5   2.0000     -10.002709      -272.1875    3-Ag
   6   2.0000     -10.001653      -272.1588    4-Bu
   7   2.0000     -10.001545      -272.1559    4-Ag
   8   2.0000      -9.988108      -271.7902    5-Bu
   9   2.0000      -9.988108      -271.7902    5-Ag
  10   2.0000      -0.814351       -22.1596    6-Ag
  11   2.0000      -0.751399       -20.4466    6-Bu
  12   2.0000      -0.717011       -19.5109    7-Ag
  13   2.0000      -0.700457       -19.0604    7-Bu
  14   2.0000      -0.666543       -18.1375    8-Bu
  15   2.0000      -0.581441       -15.8218    8-Ag
  16   2.0000      -0.556947       -15.1553    9-Ag
  17   2.0000      -0.528214       -14.3734    9-Bu
  18   2.0000      -0.508444       -13.8355   10-Ag
  19   2.0000      -0.458267       -12.4701   11-Ag
  20   2.0000      -0.434947       -11.8355   10-Bu
  21   2.0000      -0.406756       -11.0684   11-Bu
  22   2.0000      -0.395916       -10.7734   12-Bu
  23   2.0000      -0.393538       -10.7087   12-Ag
  24   2.0000      -0.371849       -10.1185   13-Bu
  25   2.0000      -0.354149        -9.6369   14-Bu
  26   2.0000      -0.345325        -9.3968   13-Ag
  27   2.0000      -0.326474        -8.8838    1-Au
  28   2.0000      -0.301609        -8.2072   15-Bu
  29   2.0000      -0.291777        -7.9397   14-Ag
  30   2.0000      -0.277235        -7.5440   15-Ag
  31   2.0000      -0.259435        -7.0596    1-Bg
  32   2.0000      -0.212259        -5.7759    2-Au
  33   2.0000      -0.193833        -5.2745    2-Bg
  34   2.0000      -0.156338        -4.2542    3-Bg
  35   0.0000       0.053305         1.4505    3-Au
  36   0.0000       0.094484         2.5710    4-Au
  37   0.0000       0.120226         3.2715    4-Bg
  38   0.0000       0.185211         5.0398    5-Au
  39   0.0000       0.284067         7.7299    5-Bg
  40   0.0000       0.322871         8.7858   16-Ag
  41   0.0000       0.333167         9.0659   16-Bu
  42   0.0000       0.369077        10.0431   17-Bu
  43   0.0000       0.373836        10.1726   17-Ag
  44   0.0000       0.416574        11.3356   18-Bu
  45   0.0000       0.419668        11.4197   18-Ag
  46   0.0000       0.425195        11.5701   19-Bu
  47   0.0000       0.449417        12.2293   19-Ag
  48   0.0000       0.472525        12.8581   20-Bu
  49   0.0000       0.499618        13.5953   20-Ag
  50   0.0000       0.542506        14.7624   21-Ag
  51   0.0000       0.574234        15.6257   21-Bu
  52   0.0000       0.590423        16.0662   22-Ag
  53   0.0000       0.613831        16.7032   22-Bu
  54   0.0000       0.630203        17.1487   23-Bu
  55   0.0000       0.649435        17.6720   23-Ag
  56   0.0000       0.696504        18.9528   24-Ag
  57   0.0000       0.746746        20.3200   24-Bu
  58   0.0000       0.809951        22.0399   25-Ag
  59   0.0000       0.819742        22.3063   25-Bu

                    ********************************
                    * MULLIKEN POPULATION ANALYSIS *
                    ********************************

-----------------------
MULLIKEN ATOMIC CHARGES
-----------------------
   0 C :   -0.004093
   1 C :   -0.078868
   2 C :   -0.077027
   3 C :   -0.004093
   4 C :   -0.078868
   5 C :   -0.077027
   6 H :    0.078371
   7 H :    0.079538
   8 H :    0.078371
   9 H :    0.079538
  10 C :   -0.075220
  11 C :   -0.155828
  12 H :    0.078596
  13 H :    0.078019
  14 H :    0.076511
  15 C :   -0.075220
  16 C :   -0.155828
  17 H :    0.078596
  18 H :    0.078019
  19 H :    0.076511
Sum of atomic charges:   -0.0000000

--------------------------------
MULLIKEN REDUCED ORBITAL CHARGES
--------------------------------
  0 C s       :     3.130946  s :     3.130946
      pz      :     0.993078  p :     2.873147
      px      :     0.929033
      py      :     0.951036
  1 C s       :     3.140698  s :     3.140698
      pz      :     1.003562  p :     2.938170
      px      :     0.961312
      py      :     0.973297
  2 C s       :     3.139269  s :     3.139269
      pz      :     1.000806  p :     2.937757
      px      :     0.959617
      py      :     0.977334
  3 C s       :     3.130946  s :     3.130946
      pz      :     0.993078  p :     2.873147
      px      :     0.929033
      py      :     0.951036
  4 C s       :     3.140698  s :     3.140698
      pz      :     1.003562  p :     2.938170
      px      :     0.961312
      py      :     0.973297
  5 C s       :     3.139269  s :     3.139269
      pz      :     1.000806  p :     2.937757
      px      :     0.959617
      py      :     0.977334
  6 H s       :     0.921629  s :     0.921629
  7 H s       :     0.920462  s :     0.920462
  8 H s       :     0.921629  s :     0.921629
  9 H s       :     0.920462  s :     0.920462
 10 C s       :     3.158274  s :     3.158274
      pz      :     0.994687  p :     2.916946
      px      :     0.933858
      py      :     0.988402
 11 C s       :     3.162310  s :     3.162310
      pz      :     1.007867  p :     2.993518
      px      :     0.997280
      py      :     0.988371
 12 H s       :     0.921404  s :     0.921404
 13 H s       :     0.921981  s :     0.921981
 14 H s       :     0.923489  s :     0.923489
 15 C s       :     3.158274  s :     3.158274
      pz      :     0.994687  p :     2.916946
      px      :     0.933858
      py      :     0.988402
 16 C s       :     3.162310  s :     3.162310
      pz      :     1.007867  p :     2.993518
      px      :     0.997280
      py      :     0.988371
 17 H s       :     0.921404  s :     0.921404
 18 H s       :     0.921981  s :     0.921981
 19 H s       :     0.923489  s :     0.923489


                     *******************************
                     * LOEWDIN POPULATION ANALYSIS *
                     *******************************

----------------------
LOEWDIN ATOMIC CHARGES
----------------------
   0 C :    0.003230
   1 C :   -0.045754
   2 C :   -0.045196
   3 C :    0.003230
   4 C :   -0.045754
   5 C :   -0.045196
   6 H :    0.042776
   7 H :    0.045001
   8 H :    0.042776
   9 H :    0.045001
  10 C :   -0.037565
  11 C :   -0.093714
  12 H :    0.042726
  13 H :    0.044208
  14 H :    0.044287
  15 C :   -0.037565
  16 C :   -0.093714
  17 H :    0.042726
  18 H :    0.044208
  19 H :    0.044287

-------------------------------
LOEWDIN REDUCED ORBITAL CHARGES
-------------------------------
  0 C s       :     3.026823  s :     3.026823
      pz      :     0.992303  p :     2.969947
      px      :     0.972724
      py      :     1.004920
  1 C s       :     3.020726  s :     3.020726
      pz      :     1.003789  p :     3.025028
      px      :     1.010549
      py      :     1.010690
  2 C s       :     3.020091  s :     3.020091
      pz      :     1.001169  p :     3.025105
      px      :     1.009097
      py      :     1.014839
  3 C s       :     3.026823  s :     3.026823
      pz      :     0.992303  p :     2.969947
      px      :     0.972724
      py      :     1.004920
  4 C s       :     3.020726  s :     3.020726
      pz      :     1.003789  p :     3.025028
      px      :     1.010549
      py      :     1.010690
  5 C s       :     3.020091  s :     3.020091
      pz      :     1.001169  p :     3.025105
      px      :     1.009097
      py      :     1.014839
  6 H s       :     0.957224  s :     0.957224
  7 H s       :     0.954999  s :     0.954999
  8 H s       :     0.957224  s :     0.957224
  9 H s       :     0.954999  s :     0.954999
 10 C s       :     3.038063  s :     3.038063
      pz      :     0.994222  p :     2.999502
      px      :     0.978266
      py      :     1.027014
 11 C s       :     3.027380  s :     3.027380
      pz      :     1.008517  p :     3.066333
      px      :     1.026912
      py      :     1.030905
 12 H s       :     0.957274  s :     0.957274
 13 H s       :     0.955792  s :     0.955792
 14 H s       :     0.955713  s :     0.955713
 15 C s       :     3.038063  s :     3.038063
      pz      :     0.994222  p :     2.999502
      px      :     0.978266
      py      :     1.027014
 16 C s       :     3.027380  s :     3.027380
      pz      :     1.008517  p :     3.066333
      px      :     1.026912
      py      :     1.030905
 17 H s       :     0.957274  s :     0.957274
 18 H s       :     0.955792  s :     0.955792
 19 H s       :     0.955713  s :     0.955713


                      *****************************
                      * MAYER POPULATION ANALYSIS *
                      *****************************

  NA   - Mulliken gross atomic population
  ZA   - Total nuclear charge
  QA   - Mulliken gross atomic charge
  VA   - Mayer's total valence
  BVA  - Mayer's bonded valence
  FA   - Mayer's free valence

  ATOM       NA         ZA         QA         VA         BVA        FA
  0 C      6.0041     6.0000    -0.0041     3.9751     3.9751    -0.0000
  1 C      6.0789     6.0000    -0.0789     3.9728     3.9728    -0.0000
  2 C      6.0770     6.0000    -0.0770     3.9732     3.9732     0.0000
  3 C      6.0041     6.0000    -0.0041     3.9751     3.9751    -0.0000
  4 C      6.0789     6.0000    -0.0789     3.9728     3.9728    -0.0000
  5 C      6.0770     6.0000    -0.0770     3.9732     3.9732    -0.0000
  6 H      0.9216     1.0000     0.0784     0.9939     0.9939    -0.0000
  7 H      0.9205     1.0000     0.0795     0.9937     0.9937     0.0000
  8 H      0.9216     1.0000     0.0784     0.9939     0.9939    -0.0000
  9 H      0.9205     1.0000     0.0795     0.9937     0.9937     0.0000
 10 C      6.0752     6.0000    -0.0752     3.9661     3.9661     0.0000
 11 C      6.1558     6.0000    -0.1558     3.9670     3.9670     0.0000
 12 H      0.9214     1.0000     0.0786     0.9938     0.9938    -0.0000
 13 H      0.9220     1.0000     0.0780     0.9939     0.9939    -0.0000
 14 H      0.9235     1.0000     0.0765     0.9941     0.9941    -0.0000
 15 C      6.0752     6.0000    -0.0752     3.9661     3.9661    -0.0000
 16 C      6.1558     6.0000    -0.1558     3.9670     3.9670    -0.0000
 17 H      0.9214     1.0000     0.0786     0.9938     0.9938    -0.0000
 18 H      0.9220     1.0000     0.0780     0.9939     0.9939    -0.0000
 19 H      0.9235     1.0000     0.0765     0.9941     0.9941    -0.0000

  Mayer bond orders larger than 0.1
B(  0-C ,  1-C ) :   1.3850 B(  0-C ,  5-C ) :   1.3879 B(  0-C , 15-C ) :   1.0300 
B(  1-C ,  2-C ) :   1.4504 B(  1-C ,  4-C ) :   0.1048 B(  1-C ,  6-H ) :   0.9612 
B(  2-C ,  3-C ) :   1.3879 B(  2-C ,  5-C ) :   0.1094 B(  2-C ,  7-H ) :   0.9557 
B(  3-C ,  4-C ) :   1.3850 B(  3-C , 10-C ) :   1.0300 B(  4-C ,  5-C ) :   1.4504 
B(  4-C ,  8-H ) :   0.9612 B(  5-C ,  9-H ) :   0.9557 B( 10-C , 11-C ) :   1.9333 
B( 10-C , 12-H ) :   0.9595 B( 11-C , 13-H ) :   0.9679 B( 11-C , 14-H ) :   0.9617 
B( 15-C , 16-C ) :   1.9333 B( 15-C , 17-H ) :   0.9595 B( 16-C , 18-H ) :   0.9679 
B( 16-C , 19-H ) :   0.9617 

-------
TIMINGS
-------

Total SCF time: 0 hours 0 min 23 sec 

Total time                  ....      23.954 sec
Sum of individual times     ....      26.187 sec  (109.3%)

Fock matrix formation       ....      21.349 sec  ( 89.1%)
  Coulomb formation         ....      16.302 sec  ( 76.4% of F)
  XC integration            ....       5.041 sec  ( 23.6% of F)
    Basis function eval.    ....       2.182 sec  ( 43.3% of XC)
    Density eval.           ....       1.019 sec  ( 20.2% of XC)
    XC-Functional eval.     ....       0.918 sec  ( 18.2% of XC)
    XC-Potential eval.      ....       0.730 sec  ( 14.5% of XC)
Diagonalization             ....       0.009 sec  (  0.0%)
Density matrix formation    ....       0.002 sec  (  0.0%)
Population analysis         ....       0.005 sec  (  0.0%)
Initial guess               ....       1.657 sec  (  6.9%)
Orbital Transformation      ....       0.000 sec  (  0.0%)
Orbital Orthonormalization  ....       0.000 sec  (  0.0%)
DIIS solution               ....       0.004 sec  (  0.0%)
SOSCF solution              ....       0.012 sec  (  0.0%)
Grid generation             ....       3.149 sec  ( 13.1%)

-------------------------   ----------------
FINAL SINGLE POINT ENERGY     -382.042651810
-------------------------   ----------------


                            ***************************************
                            *     ORCA property calculations      *
                            ***************************************

                                    ---------------------
                                    Active property flags
                                    ---------------------
   (+) Dipole Moment
   (+) Polarizability


------------------------------------------------------------------------------
                       ORCA ELECTRIC PROPERTIES CALCULATION
------------------------------------------------------------------------------

Dipole Moment Calculation                       ... on
Quadrupole Moment Calculation                   ... off
Polarizability Calculation                      ... Analytic (CP-SCF)
GBWName                                         ... /home/xaverw/rechnungen/scratch/dvb_raman.gbw
Electron density file                           ... /home/xaverw/rechnungen/scratch/dvb_raman.scfp.tmp

-------------
DIPOLE MOMENT
-------------
                                X             Y             Z
Electronic contribution:     -0.00000       0.00000       0.00000
Nuclear contribution   :      0.00000       0.00000       0.00000
                        -----------------------------------------
Total Dipole Moment    :     -0.00000       0.00000       0.00000
                        -----------------------------------------
Magnitude (a.u.)       :      0.00000
Magnitude (Debye)      :      0.00000

Transforming and storing MO dipole integrals   ...done

                ... starting polarizability calculation

Opening the Dipole integral file  ... (/home/xaverw/rechnungen/scratch/dvb_raman.dmo.tmp)done
Reading Dipole-MO integrals       ... done
Solving CP-SCF equations          ... 
------------------------------------------------------------------------------
                           ORCA CP-SCF CALCULATION
------------------------------------------------------------------------------

Input orbitals are from        ... /home/xaverw/rechnungen/scratch/dvb_raman.gbw
Input Perturbation             ... /home/xaverw/rechnungen/scratch/dvb_raman.cpv.tmp
Wavefunction output            ... /home/xaverw/rechnungen/scratch/dvb_raman.cpu.tmp
Perturbation mode              ... Real perturbation
Solver                         ... POPLE
Max. number of iterations      ... 64
Convergence tolerance          ... 1.000e-06
Integral handling              ... Direct
Number of perturbations        ... 3
Number of operators            ... 1
Orbital ranges used for CP-SCF:
 Operator 0:  Orbitals   0... 34  to  35... 59
DFT calculation                         ... on
Exchange functional (SCF)               ... B88
Exchange functional (CP-SCF)            ... B88
   X-Alpha parameter    XAlpha (SCF)    ...  0.666667
   X-Alpha parameter    XAlpha (CP-SCF) ...  0.666667
   Becke's b parameter  XBeta (SCF)     ...  0.004200
   Becke's b parameter  XBeta (CP-SCF)  ...  0.004200
Correlation functional (SCF)            ... LYP
Correlation functional (CP-SCF)         ... LYP
 LDA part of GGA corr.  LDAOpt (SCF)    ... VWN-5
 LDA part of GGA corr.  LDAOpt (CP-SCF) ... VWN-5
Hybrid DFT                              ... on
   Exchange mixing (SCF)                ...  0.200
   Exchange mixing (CP-SCF)             ...  0.200
   GGA exch. scaling(SCF)               ...  0.720
   GGA exch. scaling (CP-SCF)           ...  0.720
   GGA corr. scaling (SCF)              ...  0.810
   GGA corr. scaling (CP-SCF)           ...  0.810
Variables per vector in CP-SCF ... 875
Number of vectors sought       ... 3
Calculating the xc-kernel      ... done
     CP-SCF ITERATION   0: 
     CP-SCF ITERATION   1:      0.196691435
     CP-SCF ITERATION   2:      0.025694054
     CP-SCF ITERATION   3:      0.002808990
     CP-SCF ITERATION   4:      0.000063102
     CP-SCF ITERATION   5:      0.000014504
     CP-SCF ITERATION   6:      0.000000567
done
Reading CP-SCF coefficients       ... done
Doing the polarizability tensor   ... done
Cleaning up                       ... done

-------------------------
THE POLARIZABILITY TENSOR
-------------------------

The raw cartesian tensor (atomic units):
  121.24204    -18.98583      0.00000  
  -18.98583     73.69454     -0.00000  
    0.00000     -0.00000     11.24259  
diagonalized tensor: 
   11.24259     67.04375    127.89284  

   -0.00000      0.33061     -0.94377  
    0.00000      0.94377      0.33061  
    1.00000     -0.00000     -0.00000  

Isotropic polarizability :  68.72639


----------------------------------------------------------------------------
                           ORCA NUMERICAL FREQUENCIES
----------------------------------------------------------------------------

Number of atoms                ... 20
Central differences            ... used
Number of displacements        ... 120
Numerical increment            ...  0.005 bohr
IR-spectrum generation         ... on
Raman-spectrum generation      ... on
Polarizability calculation     ... 1
Surface Crossing Hessian       ... off

The output will be reduced. Please look at the following files:
SCF program output             ... >/home/xaverw/rechnungen/scratch/dvb_raman.lastscf
Integral program output        ... >/home/xaverw/rechnungen/scratch/dvb_raman.lastint
Gradient program output        ... >/home/xaverw/rechnungen/scratch/dvb_raman.lastgrad
Dipole moment program output   ... >/home/xaverw/rechnungen/scratch/dvb_raman.lastmom


                <<<Energy and Gradient at the input geometry>>>

------------------------------------------------------------------------------
                           ORCA CP-SCF CALCULATION
------------------------------------------------------------------------------

Input orbitals are from        ... /home/xaverw/rechnungen/scratch/dvb_raman.gbw
Input Perturbation             ... /home/xaverw/rechnungen/scratch/dvb_raman.cpv.tmp
Wavefunction output            ... /home/xaverw/rechnungen/scratch/dvb_raman.cpu.tmp
Perturbation mode              ... Real perturbation
Solver                         ... POPLE
Max. number of iterations      ... 64
Convergence tolerance          ... 1.000e-06
Integral handling              ... Direct
Number of perturbations        ... 3
Number of operators            ... 1
Orbital ranges used for CP-SCF:
 Operator 0:  Orbitals   0... 34  to  35... 59
DFT calculation                         ... on
Exchange functional (SCF)               ... B88
Exchange functional (CP-SCF)            ... B88
   X-Alpha parameter    XAlpha (SCF)    ...  0.666667
   X-Alpha parameter    XAlpha (CP-SCF) ...  0.666667
   Becke's b parameter  XBeta (SCF)     ...  0.004200
   Becke's b parameter  XBeta (CP-SCF)  ...  0.004200
Correlation functional (SCF)            ... LYP
Correlation functional (CP-SCF)         ... LYP
 LDA part of GGA corr.  LDAOpt (SCF)    ... VWN-5
 LDA part of GGA corr.  LDAOpt (CP-SCF) ... VWN-5
Hybrid DFT                              ... on
   Exchange mixing (SCF)                ...  0.200
   Exchange mixing (CP-SCF)             ...  0.200
   GGA exch. scaling(SCF)               ...  0.720
   GGA exch. scaling (CP-SCF)           ...  0.720
   GGA corr. scaling (SCF)              ...  0.810
   GGA corr. scaling (CP-SCF)           ...  0.810
Variables per vector in CP-SCF ... 875
Number of vectors sought       ... 3
Calculating the xc-kernel      ... done
     CP-SCF ITERATION   0: 
     CP-SCF ITERATION   1:      0.196691409
     CP-SCF ITERATION   2:      0.025694029
     CP-SCF ITERATION   3:      0.002808989
     CP-SCF ITERATION   4:      0.000063102
     CP-SCF ITERATION   5:      0.000014505
     CP-SCF ITERATION   6:      0.000000567
                     <<<Displacing   1/coordinate 1 (+)>>>

------------------------------------------------------------------------------
                           ORCA CP-SCF CALCULATION
------------------------------------------------------------------------------

Input orbitals are from        ... /home/xaverw/rechnungen/scratch/dvb_raman.gbw
Input Perturbation             ... /home/xaverw/rechnungen/scratch/dvb_raman.cpv.tmp
Wavefunction output            ... /home/xaverw/rechnungen/scratch/dvb_raman.cpu.tmp
Perturbation mode              ... Real perturbation
Solver                         ... POPLE
Max. number of iterations      ... 64
Convergence tolerance          ... 1.000e-06
Integral handling              ... Direct
Number of perturbations        ... 3
Number of operators            ... 1
Orbital ranges used for CP-SCF:
 Operator 0:  Orbitals   0... 34  to  35... 59
DFT calculation                         ... on
Exchange functional (SCF)               ... B88
Exchange functional (CP-SCF)            ... B88
   X-Alpha parameter    XAlpha (SCF)    ...  0.666667
   X-Alpha parameter    XAlpha (CP-SCF) ...  0.666667
   Becke's b parameter  XBeta (SCF)     ...  0.004200
   Becke's b parameter  XBeta (CP-SCF)  ...  0.004200
Correlation functional (SCF)            ... LYP
Correlation functional (CP-SCF)         ... LYP
 LDA part of GGA corr.  LDAOpt (SCF)    ... VWN-5
 LDA part of GGA corr.  LDAOpt (CP-SCF) ... VWN-5
Hybrid DFT                              ... on
   Exchange mixing (SCF)                ...  0.200
   Exchange mixing (CP-SCF)             ...  0.200
   GGA exch. scaling(SCF)               ...  0.720
   GGA exch. scaling (CP-SCF)           ...  0.720
   GGA corr. scaling (SCF)              ...  0.810
   GGA corr. scaling (CP-SCF)           ...  0.810
Variables per vector in CP-SCF ... 875
Number of vectors sought       ... 3
Calculating the xc-kernel      ... done
     CP-SCF ITERATION   0: 
     CP-SCF ITERATION   1:      0.197330549
     CP-SCF ITERATION   2:      0.025875736
     CP-SCF ITERATION   3:      0.002809773
     CP-SCF ITERATION   4:      0.000064059
     CP-SCF ITERATION   5:      0.000015338
     CP-SCF ITERATION   6:      0.000000568
                     <<<Displacing   1/coordinate 1 (-)>>>

------------------------------------------------------------------------------
                           ORCA CP-SCF CALCULATION
------------------------------------------------------------------------------

Input orbitals are from        ... /home/xaverw/rechnungen/scratch/dvb_raman.gbw
Input Perturbation             ... /home/xaverw/rechnungen/scratch/dvb_raman.cpv.tmp
Wavefunction output            ... /home/xaverw/rechnungen/scratch/dvb_raman.cpu.tmp
Perturbation mode              ... Real perturbation
Solver                         ... POPLE
Max. number of iterations      ... 64
Convergence tolerance          ... 1.000e-06
Integral handling              ... Direct
Number of perturbations        ... 3
Number of operators            ... 1
Orbital ranges used for CP-SCF:
 Operator 0:  Orbitals   0... 34  to  35... 59
DFT calculation                         ... on
Exchange functional (SCF)               ... B88
Exchange functional (CP-SCF)            ... B88
   X-Alpha parameter    XAlpha (SCF)    ...  0.666667
   X-Alpha parameter    XAlpha (CP-SCF) ...  0.666667
   Becke's b parameter  XBeta (SCF)     ...  0.004200
   Becke's b parameter  XBeta (CP-SCF)  ...  0.004200
Correlation functional (SCF)            ... LYP
Correlation functional (CP-SCF)         ... LYP
 LDA part of GGA corr.  LDAOpt (SCF)    ... VWN-5
 LDA part of GGA corr.  LDAOpt (CP-SCF) ... VWN-5
Hybrid DFT                              ... on
   Exchange mixing (SCF)                ...  0.200
   Exchange mixing (CP-SCF)             ...  0.200
   GGA exch. scaling(SCF)               ...  0.720
   GGA exch. scaling (CP-SCF)           ...  0.720
   GGA corr. scaling (SCF)              ...  0.810
   GGA corr. scaling (CP-SCF)           ...  0.810
Variables per vector in CP-SCF ... 875
Number of vectors sought       ... 3
Calculating the xc-kernel      ... done
     CP-SCF ITERATION   0: 
     CP-SCF ITERATION   1:      0.196076418
     CP-SCF ITERATION   2:      0.025516591
     CP-SCF ITERATION   3:      0.002809976
     CP-SCF ITERATION   4:      0.000062440
     CP-SCF ITERATION   5:      0.000014221
     CP-SCF ITERATION   6:      0.000000566
                     <<<Displacing   1/coordinate 2 (+)>>>

------------------------------------------------------------------------------
                           ORCA CP-SCF CALCULATION
------------------------------------------------------------------------------

Input orbitals are from        ... /home/xaverw/rechnungen/scratch/dvb_raman.gbw
Input Perturbation             ... /home/xaverw/rechnungen/scratch/dvb_raman.cpv.tmp
Wavefunction output            ... /home/xaverw/rechnungen/scratch/dvb_raman.cpu.tmp
Perturbation mode              ... Real perturbation
Solver                         ... POPLE
Max. number of iterations      ... 64
Convergence tolerance          ... 1.000e-06
Integral handling              ... Direct
Number of perturbations        ... 3
Number of operators            ... 1
Orbital ranges used for CP-SCF:
 Operator 0:  Orbitals   0... 34  to  35... 59
DFT calculation                         ... on
Exchange functional (SCF)               ... B88
Exchange functional (CP-SCF)            ... B88
   X-Alpha parameter    XAlpha (SCF)    ...  0.666667
   X-Alpha parameter    XAlpha (CP-SCF) ...  0.666667
   Becke's b parameter  XBeta (SCF)     ...  0.004200
   Becke's b parameter  XBeta (CP-SCF)  ...  0.004200
Correlation functional (SCF)            ... LYP
Correlation functional (CP-SCF)         ... LYP
 LDA part of GGA corr.  LDAOpt (SCF)    ... VWN-5
 LDA part of GGA corr.  LDAOpt (CP-SCF) ... VWN-5
Hybrid DFT                              ... on
   Exchange mixing (SCF)                ...  0.200
   Exchange mixing (CP-SCF)             ...  0.200
   GGA exch. scaling(SCF)               ...  0.720
   GGA exch. scaling (CP-SCF)           ...  0.720
   GGA corr. scaling (SCF)              ...  0.810
   GGA corr. scaling (CP-SCF)           ...  0.810
Variables per vector in CP-SCF ... 875
Number of vectors sought       ... 3
Calculating the xc-kernel      ... done
     CP-SCF ITERATION   0: 
     CP-SCF ITERATION   1:      0.196794638
     CP-SCF ITERATION   2:      0.025883866
     CP-SCF ITERATION   3:      0.002806962
     CP-SCF ITERATION   4:      0.000063126
     CP-SCF ITERATION   5:      0.000014282
     CP-SCF ITERATION   6:      0.000000567
                     <<<Displacing   1/coordinate 2 (-)>>>

------------------------------------------------------------------------------
                           ORCA CP-SCF CALCULATION
------------------------------------------------------------------------------

Input orbitals are from        ... /home/xaverw/rechnungen/scratch/dvb_raman.gbw
Input Perturbation             ... /home/xaverw/rechnungen/scratch/dvb_raman.cpv.tmp
Wavefunction output            ... /home/xaverw/rechnungen/scratch/dvb_raman.cpu.tmp
Perturbation mode              ... Real perturbation
Solver                         ... POPLE
Max. number of iterations      ... 64
Convergence tolerance          ... 1.000e-06
Integral handling              ... Direct
Number of perturbations        ... 3
Number of operators            ... 1
Orbital ranges used for CP-SCF:
 Operator 0:  Orbitals   0... 34  to  35... 59
DFT calculation                         ... on
Exchange functional (SCF)               ... B88
Exchange functional (CP-SCF)            ... B88
   X-Alpha parameter    XAlpha (SCF)    ...  0.666667
   X-Alpha parameter    XAlpha (CP-SCF) ...  0.666667
   Becke's b parameter  XBeta (SCF)     ...  0.004200
   Becke's b parameter  XBeta (CP-SCF)  ...  0.004200
Correlation functional (SCF)            ... LYP
Correlation functional (CP-SCF)         ... LYP
 LDA part of GGA corr.  LDAOpt (SCF)    ... VWN-5
 LDA part of GGA corr.  LDAOpt (CP-SCF) ... VWN-5
Hybrid DFT                              ... on
   Exchange mixing (SCF)                ...  0.200
   Exchange mixing (CP-SCF)             ...  0.200
   GGA exch. scaling(SCF)               ...  0.720
   GGA exch. scaling (CP-SCF)           ...  0.720
   GGA corr. scaling (SCF)              ...  0.810
   GGA corr. scaling (CP-SCF)           ...  0.810
Variables per vector in CP-SCF ... 875
Number of vectors sought       ... 3
Calculating the xc-kernel      ... done
     CP-SCF ITERATION   0: 
     CP-SCF ITERATION   1:      0.196597660
     CP-SCF ITERATION   2:      0.025507144
     CP-SCF ITERATION   3:      0.002811718
     CP-SCF ITERATION   4:      0.000063106
     CP-SCF ITERATION   5:      0.000014757
     CP-SCF ITERATION   6:      0.000000567
                     <<<Displacing   1/coordinate 3 (+)>>>

------------------------------------------------------------------------------
                           ORCA CP-SCF CALCULATION
------------------------------------------------------------------------------

Input orbitals are from        ... /home/xaverw/rechnungen/scratch/dvb_raman.gbw
Input Perturbation             ... /home/xaverw/rechnungen/scratch/dvb_raman.cpv.tmp
Wavefunction output            ... /home/xaverw/rechnungen/scratch/dvb_raman.cpu.tmp
Perturbation mode              ... Real perturbation
Solver                         ... POPLE
Max. number of iterations      ... 64
Convergence tolerance          ... 1.000e-06
Integral handling              ... Direct
Number of perturbations        ... 3
Number of operators            ... 1
Orbital ranges used for CP-SCF:
 Operator 0:  Orbitals   0... 34  to  35... 59
DFT calculation                         ... on
Exchange functional (SCF)               ... B88
Exchange functional (CP-SCF)            ... B88
   X-Alpha parameter    XAlpha (SCF)    ...  0.666667
   X-Alpha parameter    XAlpha (CP-SCF) ...  0.666667
   Becke's b parameter  XBeta (SCF)     ...  0.004200
   Becke's b parameter  XBeta (CP-SCF)  ...  0.004200
Correlation functional (SCF)            ... LYP
Correlation functional (CP-SCF)         ... LYP
 LDA part of GGA corr.  LDAOpt (SCF)    ... VWN-5
 LDA part of GGA corr.  LDAOpt (CP-SCF) ... VWN-5
Hybrid DFT                              ... on
   Exchange mixing (SCF)                ...  0.200
   Exchange mixing (CP-SCF)             ...  0.200
   GGA exch. scaling(SCF)               ...  0.720
   GGA exch. scaling (CP-SCF)           ...  0.720
   GGA corr. scaling (SCF)              ...  0.810
   GGA corr. scaling (CP-SCF)           ...  0.810
Variables per vector in CP-SCF ... 875
Number of vectors sought       ... 3
Calculating the xc-kernel      ... done
     CP-SCF ITERATION   0: 
     CP-SCF ITERATION   1:      0.196692863
     CP-SCF ITERATION   2:      0.025694427
     CP-SCF ITERATION   3:      0.002808963
     CP-SCF ITERATION   4:      0.000063107
     CP-SCF ITERATION   5:      0.000014507
     CP-SCF ITERATION   6:      0.000000264
                     <<<Displacing   1/coordinate 3 (-)>>>

------------------------------------------------------------------------------
                           ORCA CP-SCF CALCULATION
------------------------------------------------------------------------------

Input orbitals are from        ... /home/xaverw/rechnungen/scratch/dvb_raman.gbw
Input Perturbation             ... /home/xaverw/rechnungen/scratch/dvb_raman.cpv.tmp
Wavefunction output            ... /home/xaverw/rechnungen/scratch/dvb_raman.cpu.tmp
Perturbation mode              ... Real perturbation
Solver                         ... POPLE
Max. number of iterations      ... 64
Convergence tolerance          ... 1.000e-06
Integral handling              ... Direct
Number of perturbations        ... 3
Number of operators            ... 1
Orbital ranges used for CP-SCF:
 Operator 0:  Orbitals   0... 34  to  35... 59
DFT calculation                         ... on
Exchange functional (SCF)               ... B88
Exchange functional (CP-SCF)            ... B88
   X-Alpha parameter    XAlpha (SCF)    ...  0.666667
   X-Alpha parameter    XAlpha (CP-SCF) ...  0.666667
   Becke's b parameter  XBeta (SCF)     ...  0.004200
   Becke's b parameter  XBeta (CP-SCF)  ...  0.004200
Correlation functional (SCF)            ... LYP
Correlation functional (CP-SCF)         ... LYP
 LDA part of GGA corr.  LDAOpt (SCF)    ... VWN-5
 LDA part of GGA corr.  LDAOpt (CP-SCF) ... VWN-5
Hybrid DFT                              ... on
   Exchange mixing (SCF)                ...  0.200
   Exchange mixing (CP-SCF)             ...  0.200
   GGA exch. scaling(SCF)               ...  0.720
   GGA exch. scaling (CP-SCF)           ...  0.720
   GGA corr. scaling (SCF)              ...  0.810
   GGA corr. scaling (CP-SCF)           ...  0.810
Variables per vector in CP-SCF ... 875
Number of vectors sought       ... 3
Calculating the xc-kernel      ... done
     CP-SCF ITERATION   0: 
     CP-SCF ITERATION   1:      0.196692863
     CP-SCF ITERATION   2:      0.025694427
     CP-SCF ITERATION   3:      0.002808963
     CP-SCF ITERATION   4:      0.000063107
     CP-SCF ITERATION   5:      0.000014507
     CP-SCF ITERATION   6:      0.000000264
                     <<<Displacing   2/coordinate 1 (+)>>>

------------------------------------------------------------------------------
                           ORCA CP-SCF CALCULATION
------------------------------------------------------------------------------

Input orbitals are from        ... /home/xaverw/rechnungen/scratch/dvb_raman.gbw
Input Perturbation             ... /home/xaverw/rechnungen/scratch/dvb_raman.cpv.tmp
Wavefunction output            ... /home/xaverw/rechnungen/scratch/dvb_raman.cpu.tmp
Perturbation mode              ... Real perturbation
Solver                         ... POPLE
Max. number of iterations      ... 64
Convergence tolerance          ... 1.000e-06
Integral handling              ... Direct
Number of perturbations        ... 3
Number of operators            ... 1
Orbital ranges used for CP-SCF:
 Operator 0:  Orbitals   0... 34  to  35... 59
DFT calculation                         ... on
Exchange functional (SCF)               ... B88
Exchange functional (CP-SCF)            ... B88
   X-Alpha parameter    XAlpha (SCF)    ...  0.666667
   X-Alpha parameter    XAlpha (CP-SCF) ...  0.666667
   Becke's b parameter  XBeta (SCF)     ...  0.004200
   Becke's b parameter  XBeta (CP-SCF)  ...  0.004200
Correlation functional (SCF)            ... LYP
Correlation functional (CP-SCF)         ... LYP
 LDA part of GGA corr.  LDAOpt (SCF)    ... VWN-5
 LDA part of GGA corr.  LDAOpt (CP-SCF) ... VWN-5
Hybrid DFT                              ... on
   Exchange mixing (SCF)                ...  0.200
   Exchange mixing (CP-SCF)             ...  0.200
   GGA exch. scaling(SCF)               ...  0.720
   GGA exch. scaling (CP-SCF)           ...  0.720
   GGA corr. scaling (SCF)              ...  0.810
   GGA corr. scaling (CP-SCF)           ...  0.810
Variables per vector in CP-SCF ... 875
Number of vectors sought       ... 3
Calculating the xc-kernel      ... done
     CP-SCF ITERATION   0: 
     CP-SCF ITERATION   1:      0.196236696
     CP-SCF ITERATION   2:      0.025920058
     CP-SCF ITERATION   3:      0.002799255
     CP-SCF ITERATION   4:      0.000063289
     CP-SCF ITERATION   5:      0.000015478
     CP-SCF ITERATION   6:      0.000000567
                     <<<Displacing   2/coordinate 1 (-)>>>

------------------------------------------------------------------------------
                           ORCA CP-SCF CALCULATION
------------------------------------------------------------------------------

Input orbitals are from        ... /home/xaverw/rechnungen/scratch/dvb_raman.gbw
Input Perturbation             ... /home/xaverw/rechnungen/scratch/dvb_raman.cpv.tmp
Wavefunction output            ... /home/xaverw/rechnungen/scratch/dvb_raman.cpu.tmp
Perturbation mode              ... Real perturbation
Solver                         ... POPLE
Max. number of iterations      ... 64
Convergence tolerance          ... 1.000e-06
Integral handling              ... Direct
Number of perturbations        ... 3
Number of operators            ... 1
Orbital ranges used for CP-SCF:
 Operator 0:  Orbitals   0... 34  to  35... 59
DFT calculation                         ... on
Exchange functional (SCF)               ... B88
Exchange functional (CP-SCF)            ... B88
   X-Alpha parameter    XAlpha (SCF)    ...  0.666667
   X-Alpha parameter    XAlpha (CP-SCF) ...  0.666667
   Becke's b parameter  XBeta (SCF)     ...  0.004200
   Becke's b parameter  XBeta (CP-SCF)  ...  0.004200
Correlation functional (SCF)            ... LYP
Correlation functional (CP-SCF)         ... LYP
 LDA part of GGA corr.  LDAOpt (SCF)    ... VWN-5
 LDA part of GGA corr.  LDAOpt (CP-SCF) ... VWN-5
Hybrid DFT                              ... on
   Exchange mixing (SCF)                ...  0.200
   Exchange mixing (CP-SCF)             ...  0.200
   GGA exch. scaling(SCF)               ...  0.720
   GGA exch. scaling (CP-SCF)           ...  0.720
   GGA corr. scaling (SCF)              ...  0.810
   GGA corr. scaling (CP-SCF)           ...  0.810
Variables per vector in CP-SCF ... 875
Number of vectors sought       ... 3
Calculating the xc-kernel      ... done
     CP-SCF ITERATION   0: 
     CP-SCF ITERATION   1:      0.197212210
     CP-SCF ITERATION   2:      0.025478082
     CP-SCF ITERATION   3:      0.002819143
     CP-SCF ITERATION   4:      0.000063027
     CP-SCF ITERATION   5:      0.000013536
     CP-SCF ITERATION   6:      0.000000567
                     <<<Displacing   2/coordinate 2 (+)>>>

------------------------------------------------------------------------------
                           ORCA CP-SCF CALCULATION
------------------------------------------------------------------------------

Input orbitals are from        ... /home/xaverw/rechnungen/scratch/dvb_raman.gbw
Input Perturbation             ... /home/xaverw/rechnungen/scratch/dvb_raman.cpv.tmp
Wavefunction output            ... /home/xaverw/rechnungen/scratch/dvb_raman.cpu.tmp
Perturbation mode              ... Real perturbation
Solver                         ... POPLE
Max. number of iterations      ... 64
Convergence tolerance          ... 1.000e-06
Integral handling              ... Direct
Number of perturbations        ... 3
Number of operators            ... 1
Orbital ranges used for CP-SCF:
 Operator 0:  Orbitals   0... 34  to  35... 59
DFT calculation                         ... on
Exchange functional (SCF)               ... B88
Exchange functional (CP-SCF)            ... B88
   X-Alpha parameter    XAlpha (SCF)    ...  0.666667
   X-Alpha parameter    XAlpha (CP-SCF) ...  0.666667
   Becke's b parameter  XBeta (SCF)     ...  0.004200
   Becke's b parameter  XBeta (CP-SCF)  ...  0.004200
Correlation functional (SCF)            ... LYP
Correlation functional (CP-SCF)         ... LYP
 LDA part of GGA corr.  LDAOpt (SCF)    ... VWN-5
 LDA part of GGA corr.  LDAOpt (CP-SCF) ... VWN-5
Hybrid DFT                              ... on
   Exchange mixing (SCF)                ...  0.200
   Exchange mixing (CP-SCF)             ...  0.200
   GGA exch. scaling(SCF)               ...  0.720
   GGA exch. scaling (CP-SCF)           ...  0.720
   GGA corr. scaling (SCF)              ...  0.810
   GGA corr. scaling (CP-SCF)           ...  0.810
Variables per vector in CP-SCF ... 875
Number of vectors sought       ... 3
Calculating the xc-kernel      ... done
     CP-SCF ITERATION   0: 
     CP-SCF ITERATION   1:      0.196758195
     CP-SCF ITERATION   2:      0.025574131
     CP-SCF ITERATION   3:      0.002810707
     CP-SCF ITERATION   4:      0.000063431
     CP-SCF ITERATION   5:      0.000014790
     CP-SCF ITERATION   6:      0.000000566
                     <<<Displacing   2/coordinate 2 (-)>>>

------------------------------------------------------------------------------
                           ORCA CP-SCF CALCULATION
------------------------------------------------------------------------------

Input orbitals are from        ... /home/xaverw/rechnungen/scratch/dvb_raman.gbw
Input Perturbation             ... /home/xaverw/rechnungen/scratch/dvb_raman.cpv.tmp
Wavefunction output            ... /home/xaverw/rechnungen/scratch/dvb_raman.cpu.tmp
Perturbation mode              ... Real perturbation
Solver                         ... POPLE
Max. number of iterations      ... 64
Convergence tolerance          ... 1.000e-06
Integral handling              ... Direct
Number of perturbations        ... 3
Number of operators            ... 1
Orbital ranges used for CP-SCF:
 Operator 0:  Orbitals   0... 34  to  35... 59
DFT calculation                         ... on
Exchange functional (SCF)               ... B88
Exchange functional (CP-SCF)            ... B88
   X-Alpha parameter    XAlpha (SCF)    ...  0.666667
   X-Alpha parameter    XAlpha (CP-SCF) ...  0.666667
   Becke's b parameter  XBeta (SCF)     ...  0.004200
   Becke's b parameter  XBeta (CP-SCF)  ...  0.004200
Correlation functional (SCF)            ... LYP
Correlation functional (CP-SCF)         ... LYP
 LDA part of GGA corr.  LDAOpt (SCF)    ... VWN-5
 LDA part of GGA corr.  LDAOpt (CP-SCF) ... VWN-5
Hybrid DFT                              ... on
   Exchange mixing (SCF)                ...  0.200
   Exchange mixing (CP-SCF)             ...  0.200
   GGA exch. scaling(SCF)               ...  0.720
   GGA exch. scaling (CP-SCF)           ...  0.720
   GGA corr. scaling (SCF)              ...  0.810
   GGA corr. scaling (CP-SCF)           ...  0.810
Variables per vector in CP-SCF ... 875
Number of vectors sought       ... 3
Calculating the xc-kernel      ... done
     CP-SCF ITERATION   0: 
     CP-SCF ITERATION   1:      0.196653425
     CP-SCF ITERATION   2:      0.025819135
     CP-SCF ITERATION   3:      0.002808252
     CP-SCF ITERATION   4:      0.000062888
     CP-SCF ITERATION   5:      0.000014421
     CP-SCF ITERATION   6:      0.000000568
                     <<<Displacing   2/coordinate 3 (+)>>>

------------------------------------------------------------------------------
                           ORCA CP-SCF CALCULATION
------------------------------------------------------------------------------

Input orbitals are from        ... /home/xaverw/rechnungen/scratch/dvb_raman.gbw
Input Perturbation             ... /home/xaverw/rechnungen/scratch/dvb_raman.cpv.tmp
Wavefunction output            ... /home/xaverw/rechnungen/scratch/dvb_raman.cpu.tmp
Perturbation mode              ... Real perturbation
Solver                         ... POPLE
Max. number of iterations      ... 64
Convergence tolerance          ... 1.000e-06
Integral handling              ... Direct
Number of perturbations        ... 3
Number of operators            ... 1
Orbital ranges used for CP-SCF:
 Operator 0:  Orbitals   0... 34  to  35... 59
DFT calculation                         ... on
Exchange functional (SCF)               ... B88
Exchange functional (CP-SCF)            ... B88
   X-Alpha parameter    XAlpha (SCF)    ...  0.666667
   X-Alpha parameter    XAlpha (CP-SCF) ...  0.666667
   Becke's b parameter  XBeta (SCF)     ...  0.004200
   Becke's b parameter  XBeta (CP-SCF)  ...  0.004200
Correlation functional (SCF)            ... LYP
Correlation functional (CP-SCF)         ... LYP
 LDA part of GGA corr.  LDAOpt (SCF)    ... VWN-5
 LDA part of GGA corr.  LDAOpt (CP-SCF) ... VWN-5
Hybrid DFT                              ... on
   Exchange mixing (SCF)                ...  0.200
   Exchange mixing (CP-SCF)             ...  0.200
   GGA exch. scaling(SCF)               ...  0.720
   GGA exch. scaling (CP-SCF)           ...  0.720
   GGA corr. scaling (SCF)              ...  0.810
   GGA corr. scaling (CP-SCF)           ...  0.810
Variables per vector in CP-SCF ... 875
Number of vectors sought       ... 3
Calculating the xc-kernel      ... done
     CP-SCF ITERATION   0: 
     CP-SCF ITERATION   1:      0.196691022
     CP-SCF ITERATION   2:      0.025694153
     CP-SCF ITERATION   3:      0.002808960
     CP-SCF ITERATION   4:      0.000063105
     CP-SCF ITERATION   5:      0.000014508
     CP-SCF ITERATION   6:      0.000000263
                     <<<Displacing   2/coordinate 3 (-)>>>

------------------------------------------------------------------------------
                           ORCA CP-SCF CALCULATION
------------------------------------------------------------------------------

Input orbitals are from        ... /home/xaverw/rechnungen/scratch/dvb_raman.gbw
Input Perturbation             ... /home/xaverw/rechnungen/scratch/dvb_raman.cpv.tmp
Wavefunction output            ... /home/xaverw/rechnungen/scratch/dvb_raman.cpu.tmp
Perturbation mode              ... Real perturbation
Solver                         ... POPLE
Max. number of iterations      ... 64
Convergence tolerance          ... 1.000e-06
Integral handling              ... Direct
Number of perturbations        ... 3
Number of operators            ... 1
Orbital ranges used for CP-SCF:
 Operator 0:  Orbitals   0... 34  to  35... 59
DFT calculation                         ... on
Exchange functional (SCF)               ... B88
Exchange functional (CP-SCF)            ... B88
   X-Alpha parameter    XAlpha (SCF)    ...  0.666667
   X-Alpha parameter    XAlpha (CP-SCF) ...  0.666667
   Becke's b parameter  XBeta (SCF)     ...  0.004200
   Becke's b parameter  XBeta (CP-SCF)  ...  0.004200
Correlation functional (SCF)            ... LYP
Correlation functional (CP-SCF)         ... LYP
 LDA part of GGA corr.  LDAOpt (SCF)    ... VWN-5
 LDA part of GGA corr.  LDAOpt (CP-SCF) ... VWN-5
Hybrid DFT                              ... on
   Exchange mixing (SCF)                ...  0.200
   Exchange mixing (CP-SCF)             ...  0.200
   GGA exch. scaling(SCF)               ...  0.720
   GGA exch. scaling (CP-SCF)           ...  0.720
   GGA corr. scaling (SCF)              ...  0.810
   GGA corr. scaling (CP-SCF)           ...  0.810
Variables per vector in CP-SCF ... 875
Number of vectors sought       ... 3
Calculating the xc-kernel      ... done
     CP-SCF ITERATION   0: 
     CP-SCF ITERATION   1:      0.196691022
     CP-SCF ITERATION   2:      0.025694153
     CP-SCF ITERATION   3:      0.002808960
     CP-SCF ITERATION   4:      0.000063105
     CP-SCF ITERATION   5:      0.000014508
     CP-SCF ITERATION   6:      0.000000263
                     <<<Displacing   3/coordinate 1 (+)>>>

------------------------------------------------------------------------------
                           ORCA CP-SCF CALCULATION
------------------------------------------------------------------------------

Input orbitals are from        ... /home/xaverw/rechnungen/scratch/dvb_raman.gbw
Input Perturbation             ... /home/xaverw/rechnungen/scratch/dvb_raman.cpv.tmp
Wavefunction output            ... /home/xaverw/rechnungen/scratch/dvb_raman.cpu.tmp
Perturbation mode              ... Real perturbation
Solver                         ... POPLE
Max. number of iterations      ... 64
Convergence tolerance          ... 1.000e-06
Integral handling              ... Direct
Number of perturbations        ... 3
Number of operators            ... 1
Orbital ranges used for CP-SCF:
 Operator 0:  Orbitals   0... 34  to  35... 59
DFT calculation                         ... on
Exchange functional (SCF)               ... B88
Exchange functional (CP-SCF)            ... B88
   X-Alpha parameter    XAlpha (SCF)    ...  0.666667
   X-Alpha parameter    XAlpha (CP-SCF) ...  0.666667
   Becke's b parameter  XBeta (SCF)     ...  0.004200
   Becke's b parameter  XBeta (CP-SCF)  ...  0.004200
Correlation functional (SCF)            ... LYP
Correlation functional (CP-SCF)         ... LYP
 LDA part of GGA corr.  LDAOpt (SCF)    ... VWN-5
 LDA part of GGA corr.  LDAOpt (CP-SCF) ... VWN-5
Hybrid DFT                              ... on
   Exchange mixing (SCF)                ...  0.200
   Exchange mixing (CP-SCF)             ...  0.200
   GGA exch. scaling(SCF)               ...  0.720
   GGA exch. scaling (CP-SCF)           ...  0.720
   GGA corr. scaling (SCF)              ...  0.810
   GGA corr. scaling (CP-SCF)           ...  0.810
Variables per vector in CP-SCF ... 875
Number of vectors sought       ... 3
Calculating the xc-kernel      ... done
     CP-SCF ITERATION   0: 
     CP-SCF ITERATION   1:      0.196895575
     CP-SCF ITERATION   2:      0.025506149
     CP-SCF ITERATION   3:      0.002811048
     CP-SCF ITERATION   4:      0.000063032
     CP-SCF ITERATION   5:      0.000013445
     CP-SCF ITERATION   6:      0.000000568
                     <<<Displacing   3/coordinate 1 (-)>>>
Warning (ORCA_ELPROP): failed to read the density matrix:/home/xaverw/rechnungen/scratch/dvb_raman.scfp.tmp of Dimension 60

------------------------------------------------------------------------------
                           ORCA CP-SCF CALCULATION
------------------------------------------------------------------------------

Input orbitals are from        ... /home/xaverw/rechnungen/scratch/dvb_raman.gbw
Input Perturbation             ... /home/xaverw/rechnungen/scratch/dvb_raman.cpv.tmp
Wavefunction output            ... /home/xaverw/rechnungen/scratch/dvb_raman.cpu.tmp
Perturbation mode              ... Real perturbation
Solver                         ... POPLE
Max. number of iterations      ... 64
Convergence tolerance          ... 1.000e-06
Integral handling              ... Direct
Number of perturbations        ... 3
Number of operators            ... 1
Orbital ranges used for CP-SCF:
 Operator 0:  Orbitals   0... 34  to  35... 59
DFT calculation                         ... on
Exchange functional (SCF)               ... B88
Exchange functional (CP-SCF)            ... B88
   X-Alpha parameter    XAlpha (SCF)    ...  0.666667
   X-Alpha parameter    XAlpha (CP-SCF) ...  0.666667
   Becke's b parameter  XBeta (SCF)     ...  0.004200
   Becke's b parameter  XBeta (CP-SCF)  ...  0.004200
Correlation functional (SCF)            ... LYP
Correlation functional (CP-SCF)         ... LYP
 LDA part of GGA corr.  LDAOpt (SCF)    ... VWN-5
 LDA part of GGA corr.  LDAOpt (CP-SCF) ... VWN-5
Hybrid DFT                              ... on
   Exchange mixing (SCF)                ...  0.200
   Exchange mixing (CP-SCF)             ...  0.200
   GGA exch. scaling(SCF)               ...  0.720
   GGA exch. scaling (CP-SCF)           ...  0.720
   GGA corr. scaling (SCF)              ...  0.810
   GGA corr. scaling (CP-SCF)           ...  0.810
Variables per vector in CP-SCF ... 875
Number of vectors sought       ... 3
Calculating the xc-kernel      ... Warning: could not find the gridfile in CPSCF-Calc-FXC
         ... constructing integration grid from scratch...

General Integration Accuracy     IntAcc      ...  4.670
Radial Grid Type                 RadialGrid  ... Gauss-Chebyshev
Angular Grid (max. acc.)         AngularGrid ... Lebedev-302
Angular grid pruning method      GridPruning ... 3 (G Style)
Weight generation scheme         WeightScheme... Becke
Basis function cutoff            BFCut       ...    1.0000e-11
Integration weight cutoff        WCut        ...    1.0000e-14
Grids for H and He will be reduced by one unit

# of grid points (after initial pruning)     ...  96060 (   0.2 sec)
# of grid points (after weights+screening)   ...  86997 (   1.0 sec)
nearest neighbour list constructed           ...    0.0 sec
Grid point re-assignment to atoms done       ...    0.0 sec
Grid point division into batches done        ...    0.4 sec
Reduced shell lists constructed in    1.3 sec

Total number of grid points                  ...    86997
Total number of batches                      ...     1370
Average number of points per batch           ...       63
Average number of grid points per atom       ...     4350
Average number of shells per batch           ...    25.00 (62.50%)
Average number of basis functions per batch  ...    41.07 (68.44%)
Average number of large shells per batch     ...    18.53 (74.13%)
[...]
     16      -0.016608  -0.009655   0.006289   0.012558   0.036342   0.011958
     17      -0.010025  -0.011338   0.008438   0.006014  -0.001742  -0.057230
     18       0.067486   0.176833  -0.021853   0.006236   0.100139   0.009225
     19      -0.021749  -0.094908  -0.000012   0.048131  -0.014773  -0.004578
     20      -0.001248  -0.024308  -0.014665  -0.021913  -0.016739  -0.008466
     21       0.029748  -0.157859  -0.094839   0.233072   0.345958   0.020529
     22      -0.017465   0.015858   0.087676  -0.392375  -0.084411   0.031402
     23       0.001079  -0.009581  -0.012531  -0.252821  -0.101167   0.002169
     24      -0.000533  -0.043297   0.032673   0.000885   0.218397   0.000063
     25       0.022860   0.190168   0.042133   0.392203   0.026963   0.057942
     26       0.002657   0.007883   0.004475   0.089169  -0.226654   0.025985
     27      -0.030397   0.299175   0.146669   0.193506   0.077428   0.038452
     28      -0.015822   0.006581   0.024724  -0.281188  -0.002067  -0.032887
     29       0.005968   0.390022   0.240083  -0.080479  -0.044691   0.175647
     30       0.005301   0.027315   0.028046  -0.015262   0.012834   0.001783
     31      -0.004690   0.070425   0.042309  -0.029641   0.005738  -0.014069
     32       0.000817  -0.055448  -0.035098  -0.057093   0.112797  -0.008565
     33      -0.007064  -0.047865  -0.058922   0.038503  -0.087012  -0.030951
     34       0.005895  -0.027896  -0.044838   0.003166   0.007703  -0.015003
     35      -0.000077   0.006012   0.021164   0.057387   0.001083   0.022131
     36       0.042370  -0.018891  -0.352482   0.094334   0.106261   0.065997
     37      -0.000009  -0.093308   0.284461   0.177388  -0.094921   0.335320
     38       0.000940   0.111222  -0.126557   0.199543  -0.497152  -0.089741
     39      -0.009523  -0.128354   0.202846  -0.173295   0.024909   0.126494
     40      -0.005757   0.017573   0.112616   0.027743   0.043115   0.077421
     41      -0.000751   0.161393   0.078888  -0.063943  -0.193966   0.115093
     42      -0.004357  -0.425757  -0.187851  -0.251786  -0.176375   0.387169
     43      -0.008017  -0.183663   0.099693   0.051882   0.200624  -0.333527
     44      -0.000209   0.091852   0.134177  -0.104339  -0.353417  -0.398140
     45       0.000469   0.069051  -0.075447   0.014370   0.050044  -0.022233
     46      -0.001117   0.028766  -0.058747  -0.040255  -0.016159  -0.042872
     47       0.013376   0.022484  -0.010462  -0.005175   0.004445   0.092023
     48      -0.114815  -0.022069   0.071172  -0.038141   0.046589  -0.003297
     49      -0.055209  -0.038442  -0.063123   0.021835  -0.021709   0.019770
     50       0.003621  -0.010337  -0.024057  -0.006046  -0.052977  -0.030042
     51       0.312786  -0.152225  -0.350197   0.125193  -0.149605   0.189082
     52       0.469303  -0.288674   0.360723   0.218563  -0.046480  -0.175081
     53      -0.146407  -0.084659  -0.031412   0.313481   0.141473  -0.219887
     54       0.439413  -0.158608   0.139774  -0.107091   0.020162  -0.093458
     55       0.231232   0.210201   0.086469   0.007569   0.060407   0.238845
     56       0.066545  -0.066951   0.104613  -0.123553   0.167045  -0.350548
     57       0.611837   0.191833  -0.081186  -0.157498   0.164426  -0.004353
     58       0.017150  -0.335539   0.430568   0.086067  -0.164255   0.100082
     59      -0.086092  -0.085097   0.196134   0.114738   0.273669   0.222940
                 48         49         50         51         52         53    
      0       0.000000  -0.000000  -0.000000   0.000000  -0.000000  -0.000000
      1      -0.000000   0.000000  -0.000000  -0.000000  -0.000000   0.000000
      2       0.000000  -0.000000   0.000000   0.000000   0.000000  -0.000000
      3       0.000000   0.000000   0.000000  -0.000000  -0.000000   0.000000
      4      -0.000000   0.000000   0.000000  -0.000000   0.000000   0.000000
      5       0.000000  -0.000000  -0.000000   0.000000   0.000000   0.000000
      6       0.000326   0.003884   0.009954  -0.004073  -0.023672   0.029975
      7       0.004187   0.013982  -0.006204   0.008647  -0.002107  -0.011162
      8      -0.002929  -0.005306  -0.000658  -0.009124   0.000031  -0.007883
      9       0.005122  -0.001167  -0.003212   0.008365   0.004519  -0.002490
     10       0.006670   0.010847   0.003292   0.014989   0.005326   0.001095
     11      -0.004052  -0.002425  -0.001072   0.002613  -0.003183  -0.002999
     12       0.002311   0.002486   0.007538  -0.003736   0.003298  -0.001615
     13       0.002387  -0.007282  -0.008556  -0.005676  -0.007071  -0.002156
     14      -0.008668  -0.003840  -0.002337   0.003523  -0.002179  -0.000682
     15      -0.027338   0.003540  -0.007811  -0.006895  -0.028403   0.004043
     16      -0.007731  -0.006043  -0.003495  -0.002581   0.016867  -0.005865
     17       0.021389   0.015923  -0.006952  -0.012665   0.015261   0.019916
     18      -0.001114  -0.019227  -0.111895   0.065444   0.046167  -0.113971
     19      -0.050542   0.012691   0.052193  -0.054566  -0.012191  -0.024673
     20       0.010034   0.014213   0.001453   0.032693  -0.001903   0.021893
     21      -0.294592   0.020711   0.027201   0.203220   0.025754  -0.284586
     22       0.081404  -0.018404  -0.021186   0.253329  -0.018382  -0.436373
     23       0.056974   0.001950  -0.004294   0.053785   0.003164  -0.034375
     24       0.434845  -0.002174   0.032897  -0.121891   0.003795  -0.398706
     25      -0.387877   0.059603  -0.066368  -0.271246   0.027961  -0.225171
     26      -0.275983  -0.007209   0.010683   0.173641  -0.006794  -0.549414
     27       0.314655  -0.005520   0.013593  -0.038118   0.030394  -0.073281
     28      -0.054843   0.025357   0.037704   0.546743   0.010117   0.021654
     29      -0.017542  -0.106342  -0.244775  -0.101639  -0.001199   0.099737
     30      -0.039624  -0.006872  -0.007183   0.151179   0.007402   0.045777
     31       0.005514   0.020281   0.137894  -0.052509  -0.007920  -0.001170
     32      -0.011622  -0.000066  -0.033070  -0.024266   0.000187  -0.006469
     33      -0.003188   0.016284   0.003094  -0.061736   0.011092   0.003511
     34       0.004611  -0.038059  -0.095817   0.010959  -0.007295   0.045153
     35      -0.016901   0.012078   0.034086   0.022629   0.004977   0.071058
     36       0.167275   0.209963   0.164427   0.185270   0.244746  -0.019476
     37       0.216665   0.475076  -0.270118   0.219219   0.428282  -0.019701
     38       0.289265  -0.172733  -0.064456   0.325527  -0.258890   0.037586
     39       0.018371  -0.560120  -0.345092  -0.172069   0.387615  -0.042527
     40      -0.012766  -0.193690   0.173779  -0.026736  -0.288324  -0.037158
     41       0.216952   0.104740   0.087164  -0.273509   0.177403  -0.100976
     42       0.045369   0.073749   0.008097  -0.160562  -0.254579  -0.040766
     43       0.156948  -0.036847  -0.188502  -0.070245  -0.060169  -0.007034
     44      -0.031386   0.065804  -0.019524  -0.113409  -0.024830  -0.335195
     45       0.002043  -0.026248   0.024583  -0.014376   0.030452   0.014092
     46      -0.014972   0.009994   0.036369   0.003713   0.002527   0.035109
     47      -0.030084  -0.031222   0.006007   0.022216  -0.026212  -0.031078
     48      -0.004474   0.029946  -0.019040  -0.045626  -0.045194  -0.000402
     49       0.007795  -0.032182  -0.019447  -0.028975   0.030750  -0.017658
     50      -0.003663   0.004734   0.024452  -0.028331   0.067205   0.042432
     51       0.094103   0.064835  -0.099252  -0.125097  -0.172906  -0.090567
     52       0.100222  -0.164105   0.091536   0.086342  -0.009770   0.038710
     53       0.208856  -0.178014  -0.201148   0.198699  -0.125662  -0.121866
     54      -0.052016  -0.042948   0.263195  -0.041681   0.197242  -0.017222
     55       0.000917   0.123417  -0.408871  -0.056873  -0.397401   0.079984
     56      -0.015419   0.464474  -0.267652  -0.073183  -0.192041  -0.000084
     57       0.045506   0.000330  -0.047590  -0.069789  -0.025555  -0.025755
     58      -0.150953   0.056021   0.075112  -0.013100  -0.050441   0.093272
     59       0.231835  -0.066243   0.458793   0.056286  -0.237572  -0.021737
                 54         55         56         57         58         59    
      0      -0.000000  -0.417366   0.000000  -0.484034  -0.241269   0.100695
      1       0.000000   0.268290   0.000000  -0.425240   0.124245  -0.436691
      2      -0.343979  -0.000000  -0.670719  -0.000000  -0.000000   0.000000
      3      -0.000000  -0.281999   0.000000   0.010223   0.535556  -0.034126
      4       0.000000   0.244329  -0.000000  -0.200582   0.094373   0.527591
      5      -0.363102   0.000000   0.538973   0.000000   0.000000  -0.000000
      6      -0.000000   0.216251  -0.000000   0.016738  -0.125279  -0.013495
      7       0.000000  -0.078657   0.000000   0.027773  -0.023998  -0.039637
      8       0.251263  -0.000000  -0.128193  -0.000000   0.000000  -0.000000
      9       0.000000   0.061210   0.000000   0.051908  -0.023256  -0.016864
     10      -0.000000  -0.027516  -0.000000   0.052870  -0.036764   0.013409
     11       0.017470  -0.000000   0.005295  -0.000000   0.000000  -0.000000
     12       0.000000   0.057474  -0.000000   0.060102  -0.037735   0.003429
     13      -0.000000  -0.021915   0.000000   0.052406  -0.014676  -0.036058
     14      -0.046997   0.000000   0.056249   0.000000   0.000000  -0.000000
     15      -0.000000   0.056256  -0.000000   0.134779   0.015353   0.009783
     16      -0.000000  -0.098485  -0.000000   0.202291  -0.023128   0.036981
     17       0.110614   0.000000   0.150448   0.000000  -0.000000   0.000000
     18       0.000000   0.135291   0.000000   0.138740  -0.539031  -0.294670
     19      -0.000000  -0.569383  -0.000000   0.599161  -0.552016  -0.642856
     20       0.719690  -0.000000  -0.410611  -0.000000   0.000000  -0.000000
     21      -0.000000   0.232890  -0.000000  -0.035546  -0.032105   0.015950
     22      -0.000000   0.044235  -0.000000   0.078479   0.023576  -0.004329
     23       0.154969  -0.000000  -0.073991   0.000000  -0.000000   0.000000
     24       0.000000   0.031112  -0.000000   0.063466   0.023499   0.066391
     25       0.000000  -0.072185   0.000000  -0.076124   0.044511   0.076502
     26      -0.117671   0.000000   0.097388   0.000000   0.000000  -0.000000
     27       0.000000  -0.124352   0.000000   0.028483  -0.051062  -0.021987
     28       0.000000  -0.200602   0.000000   0.095985   0.001138   0.021812
     29      -0.074626   0.000000   0.078128  -0.000000   0.000000  -0.000000
     30       0.000000   0.030115   0.000000   0.025008  -0.018627  -0.005075
     31       0.000000  -0.013384   0.000000   0.020368  -0.031873  -0.011922
     32      -0.013516   0.000000   0.010453   0.000000   0.000000  -0.000000
     33       0.000000   0.042006  -0.000000   0.021209  -0.025716  -0.004148
     34      -0.000000  -0.004932   0.000000   0.021604  -0.026783  -0.014026
     35       0.044339  -0.000000  -0.034598  -0.000000  -0.000000   0.000000
     36       0.000000   0.079362   0.000000  -0.008654  -0.016856  -0.025306
     37      -0.000000   0.059354  -0.000000   0.066448  -0.019552  -0.017273
     38      -0.090920   0.000000   0.053442   0.000000   0.000000  -0.000000
     39       0.000000   0.045930  -0.000000   0.019981  -0.026467  -0.005571
     40       0.000000   0.019509  -0.000000   0.006235  -0.031650  -0.020449
     41       0.018690  -0.000000  -0.031969   0.000000  -0.000000   0.000000
     42       0.000000   0.069869   0.000000   0.011214  -0.024899  -0.013228
     43      -0.000000  -0.028193  -0.000000   0.016575  -0.030232  -0.009694
     44       0.122107  -0.000000  -0.077740  -0.000000  -0.000000   0.000000
     45       0.000000   0.141554   0.000000   0.088797  -0.005478  -0.008523
     46       0.000000  -0.105119   0.000000   0.103749  -0.005484   0.014397
     47       0.196657  -0.000000   0.058117   0.000000  -0.000000   0.000000
     48      -0.000000   0.047569  -0.000000   0.040319  -0.012931  -0.009579
     49      -0.000000  -0.082897   0.000000   0.059663  -0.008078  -0.003122
     50       0.064011   0.000000   0.039512  -0.000000   0.000000  -0.000000
     51      -0.000000   0.044284   0.000000   0.125010  -0.021617   0.022757
     52       0.000000  -0.030558  -0.000000   0.075073   0.001999  -0.008241
     53       0.182642   0.000000  -0.058888  -0.000000   0.000000   0.000000
     54       0.000000   0.026511   0.000000   0.027532  -0.019828  -0.005392
     55      -0.000000  -0.093445   0.000000   0.085820  -0.000387   0.002185
     56       0.092350  -0.000000   0.038826   0.000000  -0.000000   0.000000
     57      -0.000000   0.018291   0.000000   0.046233  -0.013934  -0.002253
     58      -0.000000  -0.078578   0.000000   0.066345  -0.007354  -0.004416
     59      -0.015374  -0.000000   0.081110  -0.000000   0.000000   0.000000


-----------
IR SPECTRUM
-----------

 Mode    freq (cm**-1)   T**2         TX         TY         TZ
-------------------------------------------------------------------
  54:       789.10    0.339432  (  0.000000  -0.000000   0.582608)
  55:       965.22    0.554846  (  0.477132  -0.572006  -0.000000)
  56:      1233.88    0.351776  ( -0.000000  -0.000000  -0.593107)
  57:      1255.94    0.365641  ( -0.004905   0.604663  -0.000000)
  58:      1517.20    1.623988  ( -1.226150  -0.347195  -0.000000)
  59:      1695.60    1.214047  (  0.051951  -1.100613   0.000000)

--------------
RAMAN SPECTRUM
--------------

 Mode    freq (cm**-1)   Activity   Depolarization
-------------------------------------------------------------------
  54:       789.10      0.279516      0.750000
  55:       965.22     16.168466      0.302164
  56:      1233.88      0.320012      0.750000
  57:      1255.94    102.033728      0.339327
  58:      1517.20     99.843614      0.367824
  59:      1695.60     36.165294      0.314825

The first frequency considered to be a vibration is 54
The total number of vibrations considered is 6


--------------------------
THERMOCHEMISTRY AT 298.15K
--------------------------

Temperature         ... 298.15 K
Pressure            ... 1.00 atm
Total Mass          ... 130.19 AMU

Throughout the following assumptions are being made:
  (1) The electronic state is orbitally nondegenerate
  (2) There are no thermally accessible electronically excited states
  (3) Hindered rotations indicated by low frequency modes) are not
      treated as such but are treated as vibrations and this may
      case some error
  (4) All equations used are the standard statistical mechanics
      equations for an ideal gas
  (5) All vibrations are strinctly harmonic


------------
INNER ENERGY
------------

The inner energy is: U= E(el) + E(ZPE) + E(vib) + E(rot) + E(trans)
    E(el)   - is the total energy from the electronic structure calculation
              = E(kin-el) + E(nuc-el) + E(el-el) + E(nuc-nuc)
    E(ZPE)  - the the zero temperature vibrational energy from the frequency calculation
    E(vib)  - the the finite temperature correction to E(ZPE) due to population
              of excietd vibrational states
    E(rot)  - is the rotational thermal energy
    E(trans)- is the translational thermal energy

Summary of contributions to the inner energy U:
Electronic energy                ...   -382.04265181 Eh
Zero point energy                ...      0.01698815 Eh      10.66 kcal/mol
Thermal vibrational correction   ...      0.00015849 Eh       0.10 kcal/mol
Thermal rotational correction    ...      0.00141627 Eh       0.89 kcal/mol
Thermal translational correction ...      0.00141627 Eh       0.89 kcal/mol
-----------------------------------------------------------------------
Total thermal energy                   -382.02267264 Eh


Summary of corrections to the electronic energy:
(perhaps to be used in another calculation)
Total thermal correction                  0.00299103 Eh       1.88 kcal/mol
Non-thermal (ZPE) correction              0.01698815 Eh      10.66 kcal/mol
-----------------------------------------------------------------------
Total correction                          0.01997917 Eh      12.54 kcal/mol


--------
ENTHALPY
--------

The enthalpy is H = U + kB*T
                kB is Boltmann's constant
Total free energy                 ...   -382.02267264 Eh 
Thermal Enthalpy correction       ...      0.00094421 Eh       0.59 kcal/mol
-----------------------------------------------------------------------
Total Enthalpy                    ...   -382.02172843 Eh


-------
ENTROPY
-------

The entropy contributions are T*S = T*(S(el)+S(vib)+S(rot)+S(trans)
     S(el)   - electronic entropy
     S(vib)  - vibrational entropy
     S(rot)  - rotational entropy
     S(trans)- translational entropy
The entropies will be listed as mutliplied by the temperature to get
units of energy

Electronic entropy                ...      0.00000000 Eh      0.00 kcal/mol
Vibrational entropy               ...      0.00019422 Eh      0.12 kcal/mol
Rotational entropy                ...      0.01296357 Eh      8.13 kcal/mol
Translational entropy             ...      0.01924489 Eh     12.08 kcal/mol
-----------------------------------------------------------------------
Final entropy term                ...      0.03240268 Eh     20.33 kcal/mol


CAUTION: The rotational entropy is not quite correctly treated here
         because it includes a symmetry number that is not yet croorectly
         implemented in ORCA!
For a nonlinear molecule the correct rotational entropy is:
    S(rot) = R*(ln(qrot/sn)+1.5)
    R    = 8.31441 J/mol/K = 1.987191683e-3 kcal/mol/K
    qrot = 614508.3865973
    sn is the rotational symmetry number. We have assumed 3 here
       if it is different for your molecule then you should correct
       the printed rotational entropy by manually evaluating the equation
       as given above

For convenience we print out the resulting values for sn=1 - 12:
 sn= 1  qrot/sn=  614508.3866 T*S(rot)=     8.79 kcal/mol T*S(tot)=    20.98 kcal/mol
 sn= 2  qrot/sn=  307254.1933 T*S(rot)=     8.37 kcal/mol T*S(tot)=    20.57 kcal/mol
 sn= 3  qrot/sn=  204836.1289 T*S(rot)=     8.13 kcal/mol T*S(tot)=    20.33 kcal/mol
 sn= 4  qrot/sn=  153627.0966 T*S(rot)=     7.96 kcal/mol T*S(tot)=    20.16 kcal/mol
 sn= 5  qrot/sn=  122901.6773 T*S(rot)=     7.83 kcal/mol T*S(tot)=    20.03 kcal/mol
 sn= 6  qrot/sn=  102418.0644 T*S(rot)=     7.72 kcal/mol T*S(tot)=    19.92 kcal/mol
 sn= 7  qrot/sn=   87786.9124 T*S(rot)=     7.63 kcal/mol T*S(tot)=    19.83 kcal/mol
 sn= 8  qrot/sn=   76813.5483 T*S(rot)=     7.55 kcal/mol T*S(tot)=    19.75 kcal/mol
 sn= 9  qrot/sn=   68278.7096 T*S(rot)=     7.48 kcal/mol T*S(tot)=    19.68 kcal/mol
 sn=10  qrot/sn=   61450.8387 T*S(rot)=     7.42 kcal/mol T*S(tot)=    19.62 kcal/mol
 sn=11  qrot/sn=   55864.3988 T*S(rot)=     7.36 kcal/mol T*S(tot)=    19.56 kcal/mol
 sn=12  qrot/sn=   51209.0322 T*S(rot)=     7.31 kcal/mol T*S(tot)=    19.51 kcal/mol


-------------------
GIBBS FREE ENTHALPY
-------------------

The Gibbs free enthalpy is G = H - T*S

Total enthalpy                    ...   -382.02172843 Eh 
Total entropy correction          ...     -0.03240268 Eh    -20.33 kcal/mol
-----------------------------------------------------------------------
Final Gibbs free enthalpy         ...   -382.05413111 Eh

For completeness - the Gibbs free enthalpy minus the electronic energy
G-E(el)                           ...     -0.01147930 Eh     -7.20 kcal/mol

Total Time for Numerical Frequencies  :       685.381 sec
Time for Reference State              :        42.468 sec
Time for Displacements                :       642.518 sec

Timings for individual modules:

Sum of individual times         ...        0.000 sec (=   0.000 min)
                             ****ORCA TERMINATED NORMALLY****
TOTAL RUN TIME: 0 days 0 hours 12 minutes 12 seconds 761 msec
