
 Primary working directories    : /lustre/scratch/tmp/pbs.6489172.nova
 Secondary working directories  : /lustre/scratch/tmp/pbs.6489172.nova
 Wavefunction directory         : /home/langner/wfu/
 Main file repository           : /lustre/scratch/tmp/pbs.6489172.nova/

 SHA1      : c18f7d37f9f045f75d4f3096db241dde02ddca0a
 ARCHNAME  : Linux/x86_64
 FC        : /usr/local/intel/13.1-5/composer_xe_2013.5.192/bin/intel64/ifort
 FCVERSION : 13.1.3
 BLASLIB   : -L/usr/local/intel/13.1-5/composer_xe_2013.5.192/mkl/lib/intel64 -lmkl_intel_ilp64 -lmkl_sequential -lmkl_core
 id        : dmwwroc

 Nodes     nprocs
 wn719        1

 Using customized tuning parameters: mindgm=20; mindgv=20; mindgc=6; mindgr=1; noblas=0; minvec=7
 default implementation of scratch files=df  

 ***,divinylbenzene sp scf
 gprint,basis,orbital
 basis=sto-3g
 symmetry,nosym
 geometry={angstrom;
  q1
  c   1 cxx2
  c   1 cxx3       2   60.000
  c   1 cxx4       3   60.000     2 180.000
  c   1 cxx2       4   60.000     3 180.000
  c   1 cxx3       5   60.000     4 180.000
  c   1 cxx4       6   60.000     5 180.000
  c   2 cc8        3 ccc8         4 180.000
  c   5 cc8        6 ccc8         7 180.000
  h   7 hc10       2 hcc10        1 180.000
  h   4 hc10       5 hcc10        1 180.000
  h   3 hc12       2 hcc12        1 180.000
  h   6 hc12       5 hcc12        1 180.000
  c   8 cc14       2 ccc14        3 180.000
  c   9 cc14       5 ccc14        6 180.000
  h   8 hc16       2 hcc16        3   0.000
  h   9 hc16       5 hcc16        6   0.000
  h  15 hc18       9 hcc18        5 180.000
  h  14 hc18       8 hcc18        2 180.000
  h  15 hc20       9 hcc20        5   0.000
  h  14 hc20       8 hcc20        2   0.000
 }
 cxx2=       1.430000
 cxx3=       1.403000
 cxx4=       1.409000
 cc8=        1.450000
 ccc8=       120.000
 hc10=       1.097000
 hcc10=      120.000
 hc12=       1.098720
 hcc12=      120.000
 cc14=       1.342300
 ccc14=      120.000
 hc16=       1.100000
 hcc16=      120.000
 hc18=       1.096600
 hcc18=      109.471
 hc20=       1.095900
 hcc20=      126.000
 
 hf
 orbprint,9999
 pop
 {matrop
 load,s
 print,s}

 Variables initialized (774), CPU time= 0.01 sec
 Commands  initialized (547), CPU time= 0.00 sec, 516 directives.
 Default parameters read. Elapsed time= 0.09 sec

 Checking input...
 Passed
1


                                         ***  PROGRAM SYSTEM MOLPRO  ***
                         Copyright, University College Cardiff Consultants Limited, 2008

                                    Version 2012.1 linked 19 Sep 2013 14:11:18


 **********************************************************************************************************************************
 LABEL *   divinylbenzene sp scf                                                         
 Linux-2.6.18-348.3.1.el5/wn719(x86_64) 64 bit serial version                            DATE: 21-Mar-14          TIME: 05:52:10  
 **********************************************************************************************************************************

 SHA1:             c18f7d37f9f045f75d4f3096db241dde02ddca0a
 **********************************************************************************************************************************


 Variable memory set to    8000000 words,  buffer space   230000 words

 SETTING BASIS          =    STO-3G
 ZSYMEL=NOSYM
 
 SETTING CXX2           =         1.43000000                                  
 SETTING CXX3           =         1.40300000                                  
 SETTING CXX4           =         1.40900000                                  
 SETTING CC8            =         1.45000000                                  
 SETTING CCC8           =       120.00000000                                  
 SETTING HC10           =         1.09700000                                  
 SETTING HCC10          =       120.00000000                                  
 SETTING HC12           =         1.09872000                                  
 SETTING HCC12          =       120.00000000                                  
 SETTING CC14           =         1.34230000                                  
 SETTING CCC14          =       120.00000000                                  
 SETTING HC16           =         1.10000000                                  
 SETTING HCC16          =       120.00000000                                  
 SETTING HC18           =         1.09660000                                  
 SETTING HCC18          =       109.47100000                                  
 SETTING HC20           =         1.09590000                                  
 SETTING HCC20          =       126.00000000                                  


 Recomputing integrals since basis changed


 Using spherical harmonics

 Library entry C      S STO-3G               selected for orbital group  1
 Library entry C      P STO-3G               selected for orbital group  1
 Library entry H      S STO-3G               selected for orbital group  2

1PROGRAM * SEWARD (Integral evaluation for generally contracted gaussian basis sets)     Author: Roland Lindh, 1990

 Geometry written to block  1 of record 700

 Orientation using atomic masses  
 Molecule type: Asymmetric top
 Rotational constants:       4.5175466      0.7291342      0.6278060 GHz  (calculated with average atomic masses)

 Point group  C1  



 ATOMIC COORDINATES

 NR  ATOM    CHARGE       X              Y              Z

   1  C       6.00   -2.651107280    0.523546276    0.000000000
   2  C       6.00   -0.855682112    2.509407165    0.000000000
   3  C       6.00    1.752833457    2.004280937    0.000000000
   4  C       6.00    2.651107280   -0.523546276    0.000000000
   5  C       6.00    0.855682112   -2.509407165    0.000000000
   6  C       6.00   -1.752833457   -2.004280937    0.000000000
   7  C       6.00   -5.330164754    1.098711387    0.000000000
   8  C       6.00    5.330164754   -1.098711387    0.000000000
   9  H       1.00   -3.097427693   -3.582101561    0.000000000
  10  H       1.00    3.097427693    3.582101561    0.000000000
  11  H       1.00   -1.493258825    4.485371268    0.000000000
  12  H       1.00    1.493258825   -4.485371268    0.000000000
  13  C       6.00   -7.031309065   -0.782868538    0.000000000
  14  C       6.00    7.031309065    0.782868538    0.000000000
  15  H       1.00   -5.968484239    3.076977473    0.000000000
  16  H       1.00    5.968484239   -3.076977473    0.000000000
  17  H       1.00    8.943815173   -0.015027805    0.000000000
  18  H       1.00   -8.943815173    0.015027805    0.000000000
  19  H       1.00    6.604866888    2.809438193    0.000000000
  20  H       1.00   -6.604866888   -2.809438193    0.000000000

 Bond lengths in Bohr (Angstrom)

  1- 2  2.677161745   1- 6  2.682686392   1- 7  2.740102891   2- 3  2.656973085   2-11  2.076279895
       ( 1.416692980)       ( 1.419616498)       ( 1.450000000)       ( 1.406009602)       ( 1.098720000)

  3- 4  2.682686392   3-10  2.073029566   4- 5  2.677161745   4- 8  2.740102891   5- 6  2.656973085
       ( 1.419616498)       ( 1.097000000)       ( 1.416692980)       ( 1.450000000)       ( 1.406009602)

  5-12  2.076279895   6- 9  2.073029566   7-13  2.536579386   7-15  2.078698745   8-14  2.536579386
       ( 1.098720000)       ( 1.097000000)       ( 1.342300000)       ( 1.100000000)       ( 1.342300000)

  8-16  2.078698745  13-18  2.072273676  13-20  2.070950867  14-17  2.072273676  14-19  2.070950867
       ( 1.100000000)       ( 1.096600000)       ( 1.095900000)       ( 1.096600000)       ( 1.095900000)

 Bond angles

  1- 2- 3  121.15746356   1- 2-11  120.00000000   1- 6- 5  120.52228233   1- 6- 9  120.00000000

  1- 7-13  120.00000000   1- 7-15  120.00000000   2- 1- 6  118.32025410   2- 1- 7  120.00000000

  2- 3- 4  120.52228233   2- 3-10  119.47771767   3- 2-11  118.84253644   3- 4- 5  118.32025410

  3- 4- 8  121.67974590   4- 3-10  120.00000000   4- 5- 6  121.15746356   4- 5-12  120.00000000

  4- 8-14  120.00000000   4- 8-16  120.00000000   5- 4- 8  120.00000000   5- 6- 9  119.47771767

  6- 1- 7  121.67974590   6- 5-12  118.84253644   7-13-18  109.47100000   7-13-20  126.00000000

  8-14-17  109.47100000   8-14-19  126.00000000  13- 7-15  120.00000000  14- 8-16  120.00000000

 17-14-19  124.52900000  18-13-20  124.52900000


 BASIS DATA

   Nr Sym  Nuc  Type         Exponents   Contraction coefficients

   1.1 A     1  1s           71.616837     0.154329
                             13.045096     0.535328
                              3.530512     0.444635
   2.1 A     1  1s            2.941249    -0.099967
                              0.683483     0.399513
                              0.222290     0.700115
   3.1 A     1  2px           2.941249     0.155916
                              0.683483     0.607684
                              0.222290     0.391957
   4.1 A     1  2py           2.941249     0.155916
                              0.683483     0.607684
                              0.222290     0.391957
   5.1 A     1  2pz           2.941249     0.155916
                              0.683483     0.607684
                              0.222290     0.391957
   6.1 A     2  1s           71.616837     0.154329
                             13.045096     0.535328
                              3.530512     0.444635
   7.1 A     2  1s            2.941249    -0.099967
                              0.683483     0.399513
                              0.222290     0.700115
   8.1 A     2  2px           2.941249     0.155916
                              0.683483     0.607684
                              0.222290     0.391957
   9.1 A     2  2py           2.941249     0.155916
                              0.683483     0.607684
                              0.222290     0.391957
  10.1 A     2  2pz           2.941249     0.155916
                              0.683483     0.607684
                              0.222290     0.391957
  11.1 A     3  1s           71.616837     0.154329
                             13.045096     0.535328
                              3.530512     0.444635
  12.1 A     3  1s            2.941249    -0.099967
                              0.683483     0.399513
                              0.222290     0.700115
  13.1 A     3  2px           2.941249     0.155916
                              0.683483     0.607684
                              0.222290     0.391957
  14.1 A     3  2py           2.941249     0.155916
                              0.683483     0.607684
                              0.222290     0.391957
  15.1 A     3  2pz           2.941249     0.155916
                              0.683483     0.607684
                              0.222290     0.391957
  16.1 A     4  1s           71.616837     0.154329
                             13.045096     0.535328
                              3.530512     0.444635
  17.1 A     4  1s            2.941249    -0.099967
                              0.683483     0.399513
                              0.222290     0.700115
  18.1 A     4  2px           2.941249     0.155916
                              0.683483     0.607684
                              0.222290     0.391957
  19.1 A     4  2py           2.941249     0.155916
                              0.683483     0.607684
                              0.222290     0.391957
  20.1 A     4  2pz           2.941249     0.155916
                              0.683483     0.607684
                              0.222290     0.391957
  21.1 A     5  1s           71.616837     0.154329
                             13.045096     0.535328
                              3.530512     0.444635
  22.1 A     5  1s            2.941249    -0.099967
                              0.683483     0.399513
                              0.222290     0.700115
  23.1 A     5  2px           2.941249     0.155916
                              0.683483     0.607684
                              0.222290     0.391957
  24.1 A     5  2py           2.941249     0.155916
                              0.683483     0.607684
                              0.222290     0.391957
  25.1 A     5  2pz           2.941249     0.155916
                              0.683483     0.607684
                              0.222290     0.391957
  26.1 A     6  1s           71.616837     0.154329
                             13.045096     0.535328
                              3.530512     0.444635
  27.1 A     6  1s            2.941249    -0.099967
                              0.683483     0.399513
                              0.222290     0.700115
  28.1 A     6  2px           2.941249     0.155916
                              0.683483     0.607684
                              0.222290     0.391957
  29.1 A     6  2py           2.941249     0.155916
                              0.683483     0.607684
                              0.222290     0.391957
  30.1 A     6  2pz           2.941249     0.155916
                              0.683483     0.607684
                              0.222290     0.391957
  31.1 A     7  1s           71.616837     0.154329
                             13.045096     0.535328
                              3.530512     0.444635
  32.1 A     7  1s            2.941249    -0.099967
                              0.683483     0.399513
                              0.222290     0.700115
  33.1 A     7  2px           2.941249     0.155916
                              0.683483     0.607684
                              0.222290     0.391957
  34.1 A     7  2py           2.941249     0.155916
                              0.683483     0.607684
                              0.222290     0.391957
  35.1 A     7  2pz           2.941249     0.155916
                              0.683483     0.607684
                              0.222290     0.391957
  36.1 A     8  1s           71.616837     0.154329
                             13.045096     0.535328
                              3.530512     0.444635
  37.1 A     8  1s            2.941249    -0.099967
                              0.683483     0.399513
                              0.222290     0.700115
  38.1 A     8  2px           2.941249     0.155916
                              0.683483     0.607684
                              0.222290     0.391957
  39.1 A     8  2py           2.941249     0.155916
                              0.683483     0.607684
                              0.222290     0.391957
  40.1 A     8  2pz           2.941249     0.155916
                              0.683483     0.607684
                              0.222290     0.391957
  41.1 A     9  1s            3.425251     0.154329
                              0.623914     0.535328
                              0.168855     0.444635
  42.1 A    10  1s            3.425251     0.154329
                              0.623914     0.535328
                              0.168855     0.444635
  43.1 A    11  1s            3.425251     0.154329
                              0.623914     0.535328
                              0.168855     0.444635
  44.1 A    12  1s            3.425251     0.154329
                              0.623914     0.535328
                              0.168855     0.444635
  45.1 A    13  1s           71.616837     0.154329
                             13.045096     0.535328
                              3.530512     0.444635
  46.1 A    13  1s            2.941249    -0.099967
                              0.683483     0.399513
                              0.222290     0.700115
  47.1 A    13  2px           2.941249     0.155916
                              0.683483     0.607684
                              0.222290     0.391957
  48.1 A    13  2py           2.941249     0.155916
                              0.683483     0.607684
                              0.222290     0.391957
  49.1 A    13  2pz           2.941249     0.155916
                              0.683483     0.607684
                              0.222290     0.391957
  50.1 A    14  1s           71.616837     0.154329
                             13.045096     0.535328
                              3.530512     0.444635
  51.1 A    14  1s            2.941249    -0.099967
                              0.683483     0.399513
                              0.222290     0.700115
  52.1 A    14  2px           2.941249     0.155916
                              0.683483     0.607684
                              0.222290     0.391957
  53.1 A    14  2py           2.941249     0.155916
                              0.683483     0.607684
                              0.222290     0.391957
  54.1 A    14  2pz           2.941249     0.155916
                              0.683483     0.607684
                              0.222290     0.391957
  55.1 A    15  1s            3.425251     0.154329
                              0.623914     0.535328
                              0.168855     0.444635
  56.1 A    16  1s            3.425251     0.154329
                              0.623914     0.535328
                              0.168855     0.444635
  57.1 A    17  1s            3.425251     0.154329
                              0.623914     0.535328
                              0.168855     0.444635
  58.1 A    18  1s            3.425251     0.154329
                              0.623914     0.535328
                              0.168855     0.444635
  59.1 A    19  1s            3.425251     0.154329
                              0.623914     0.535328
                              0.168855     0.444635
  60.1 A    20  1s            3.425251     0.154329
                              0.623914     0.535328
                              0.168855     0.444635

 NUCLEAR CHARGE:                   70
 NUMBER OF PRIMITIVE AOS:         180
 NUMBER OF SYMMETRY AOS:          180
 NUMBER OF CONTRACTIONS:           60   (  60A   )
 NUMBER OF CORE ORBITALS:          10   (  10A   )
 NUMBER OF VALENCE ORBITALS:       50   (  50A   )


 NUCLEAR REPULSION ENERGY  452.43141868

 EXTRA SYMMETRY OF AOS IN SYMMETRY 1:   1 1 1 1 2 1 1 1 1 2   1 1 1 1 2 1 1 1 1 2   1 1 1 1 2 1 1 1 1 2   1 1 1 1 2 1 1 1 1 2
                                        1 1 1 1 1 1 1 1 2 1   1 1 1 2 1 1 1 1 1 1

 Eigenvalues of metric

         1 0.178E+00 0.185E+00 0.189E+00 0.214E+00 0.221E+00 0.244E+00 0.260E+00 0.281E+00


 Contracted 2-electron integrals neglected if value below      1.0D-11
 AO integral compression algorithm  1   Integral accuracy      1.0D-11

     5.767 MB (compressed) written to integral file ( 42.5%)


 NUMBER OF SORTED TWO-ELECTRON INTEGRALS:    1675365.     BUFFER LENGTH:  32768
 NUMBER OF SEGMENTS:   1  SEGMENT LENGTH:    1675365      RECORD LENGTH: 524288

 Memory used in sort:       2.23 MW

 SORT1 READ     1719389. AND WROTE      795052. INTEGRALS IN      3 RECORDS. CPU TIME:     0.04 SEC, REAL TIME:     0.07 SEC
 SORT2 READ      795052. AND WROTE     1675365. INTEGRALS IN     22 RECORDS. CPU TIME:     0.05 SEC, REAL TIME:     0.09 SEC

 FILE SIZES:   FILE 1:    13.7 MBYTE,  FILE 4:    12.6 MBYTE,   TOTAL:     26.3 MBYTE

 OPERATOR DM      FOR CENTER  0  COORDINATES:    0.000000    0.000000    0.000000


 **********************************************************************************************************************************
 DATASETS  * FILE   NREC   LENGTH (MB)   RECORD NAMES
              1      19       10.93       500      610      700      900      950      970     1000      129      960     1100   
                                          VAR    BASINP    GEOM    SYMINP    ZMAT    AOBASIS   BASIS     P2S    ABASIS      S 
                                         1400     1410     1200     1210     1080     1600     1650     1300     1700   
                                           T        V       H0       H01     AOSYM     SMH    MOLCAS    ERIS     OPER   

 PROGRAMS   *        TOTAL       INT
 CPU TIMES  *         1.52      1.42
 REAL TIME  *         1.99 SEC
 DISK USED  *        26.78 MB      
 **********************************************************************************************************************************

1PROGRAM * RHF-SCF (CLOSED SHELL)       Authors: W. Meyer, H.-J. Werner


 NUMBER OF ELECTRONS:      35+   35-    SPACE SYMMETRY=1    SPIN SYMMETRY: Singlet 
 CONVERGENCE THRESHOLDS:    1.00E-05 (Density)    1.40E-07 (Energy)
 MAX. NUMBER OF ITERATIONS:       60
 INTERPOLATION TYPE:            DIIS
 INTERPOLATION STEPS:              2 (START)      1 (STEP)
 LEVEL SHIFTS:                  0.00 (CLOSED)  0.00 (OPEN) 




   Atom=C  basis=cc-pVTZ           lmin=0  lmax=1
   Atom=H  basis=cc-pVTZ           lmin=0  lmax=1
   Atom=C  basis=cc-pVTZ           lmin=0  lmax=1
   Atom=H  basis=cc-pVTZ           lmin=0  lmax=1

 Orbital guess generated from atomic densities. Full valence occupancy:   35

 Molecular orbital dump at record        2100.2

 ITERATION    DDIFF          GRAD             ENERGY        2-EL.EN.            DIPOLE MOMENTS         DIIS   ORB.
    1      0.000D+00      0.000D+00      -379.70333305   1167.468471    0.00000    0.00000   -0.00000    0    start
    2      0.000D+00      0.511D-02      -379.74299742   1161.713384   -0.00000   -0.00000   -0.00000    1    diag
    3      0.106D-01      0.167D-02      -379.74608121   1162.314653    0.00000   -0.00000   -0.00000    2    diag
    4      0.319D-02      0.525D-03      -379.74655591   1162.158360    0.00000   -0.00000   -0.00000    3    diag
    5      0.104D-02      0.159D-03      -379.74660497   1162.147498   -0.00000    0.00000   -0.00000    4    diag
    6      0.336D-03      0.410D-04      -379.74660948   1162.145113    0.00000   -0.00000   -0.00000    5    diag
    7      0.111D-03      0.152D-04      -379.74660998   1162.144028   -0.00000   -0.00000   -0.00000    6    diag
    8      0.442D-04      0.435D-05      -379.74661002   1162.143666    0.00000   -0.00000   -0.00000    7    diag
    9      0.111D-04      0.127D-05      -379.74661002   1162.143513    0.00000    0.00000   -0.00000    8    diag
   10      0.468D-05      0.157D-06      -379.74661002   1162.143514    0.00000   -0.00000    0.00000    0    orth

 Final occupancy:  35

 !RHF STATE 1.1 Energy               -379.746610021540
 Nuclear energy                       452.43141868
 One-electron energy                -1413.24978575
 Two-electron energy                  581.07175705
 Virial quotient                       -1.00838750
 !RHF STATE 1.1 Dipole moment           0.00000000    -0.00000000     0.00000000
 Dipole moment /Debye                   0.00000000    -0.00000000     0.00000000

 ELECTRON ORBITALS
 =================


   Orb  Occ    Energy  Couls-En    Coefficients

                                   1 1s      1 1s      1 2px     1 2py     1 2pz     2 1s      2 1s      2 2px     2 2py     2 2pz  
                                   3 1s      3 1s      3 2px     3 2py     3 2pz     4 1s      4 1s      4 2px     4 2py     4 2pz  
                                   5 1s      5 1s      5 2px     5 2py     5 2pz     6 1s      6 1s      6 2px     6 2py     6 2pz  
                                   7 1s      7 1s      7 2px     7 2py     7 2pz     8 1s      8 1s      8 2px     8 2py     8 2pz  
                                   9 1s     10 1s     11 1s     12 1s     13 1s     13 1s     13 2px    13 2py    13 2pz    14 1s   
                                  14 1s     14 2px    14 2py    14 2pz    15 1s     16 1s     17 1s     18 1s     19 1s     20 1s   


   1.1   2   -11.0351  -43.4915  0.701460  0.025696  0.000365 -0.000006 -0.000000  0.006924 -0.004770  0.002093  0.002343 -0.000000
                                -0.006449  0.004742  0.001028 -0.002955  0.000000 -0.701460 -0.025696  0.000365 -0.000006  0.000000
                                -0.006924  0.004770  0.002093  0.002343 -0.000000  0.006449 -0.004742  0.001028 -0.002955  0.000000
                                -0.004310 -0.004745 -0.002985  0.000680  0.000000  0.004310  0.004745 -0.002985  0.000680 -0.000000
                                 0.000069 -0.000069  0.000064 -0.000064 -0.001114  0.000146 -0.000014  0.000055 -0.000000  0.001114
                                -0.000146 -0.000014  0.000055  0.000000  0.000079 -0.000079  0.000070 -0.000070  0.000066 -0.000066

   2.1   2   -11.0350  -43.4916  0.701530  0.025622  0.000148  0.000042  0.000000  0.004065 -0.004631  0.002119  0.002368  0.000000
                                 0.003740 -0.004595 -0.001048  0.002969 -0.000000  0.701530  0.025622 -0.000148 -0.000042 -0.000000
                                 0.004065 -0.004631 -0.002119 -0.002368  0.000000  0.003740 -0.004595  0.001048 -0.002969 -0.000000
                                -0.004643 -0.004818 -0.003028  0.000691 -0.000000 -0.004643 -0.004818  0.003028 -0.000691  0.000000
                                -0.000012 -0.000012 -0.000020 -0.000020 -0.001083  0.000151 -0.000010  0.000057  0.000000 -0.001083
                                 0.000151  0.000010 -0.000057 -0.000000  0.000084  0.000084 -0.000070 -0.000070 -0.000059 -0.000059

   3.1   2   -11.0274  -41.1637  0.005053 -0.004412  0.003066 -0.000561 -0.000000 -0.003788 -0.000011  0.000040 -0.000029  0.000000
                                 0.002864 -0.000050  0.000024  0.000028  0.000000 -0.005053  0.004412  0.003066 -0.000561 -0.000000
                                 0.003788  0.000011  0.000040 -0.000029  0.000000 -0.002864  0.000050  0.000024  0.000028 -0.000000
                                 0.701325  0.025490 -0.000249 -0.000974 -0.000000 -0.701326 -0.025490 -0.000249 -0.000974 -0.000000
                                -0.000054  0.000054 -0.000028  0.000028  0.018491 -0.004773 -0.002229 -0.002343  0.000000 -0.018491
                                 0.004773 -0.002229 -0.002343  0.000000 -0.004727  0.004727  0.000161 -0.000161  0.000020 -0.000020

   4.1   2   -11.0274  -41.1638  0.005385 -0.004362  0.003057 -0.000559 -0.000000 -0.005879 -0.000127  0.000022  0.000030  0.000000
                                -0.005084 -0.000064  0.000012  0.000016 -0.000000  0.005385 -0.004362 -0.003057  0.000559  0.000000
                                -0.005879 -0.000127 -0.000022 -0.000030 -0.000000 -0.005084 -0.000064 -0.000012 -0.000016 -0.000000
                                 0.701297  0.025479 -0.000256 -0.000973  0.000000  0.701297  0.025479  0.000256  0.000973  0.000000
                                -0.000050 -0.000050 -0.000024 -0.000024  0.018493 -0.004772 -0.002228 -0.002344  0.000000  0.018493
                                -0.004772  0.002228  0.002344  0.000000 -0.004727 -0.004727 -0.000161 -0.000161 -0.000021 -0.000021

   5.1   2   -11.0242  -42.6319  0.001456  0.001525 -0.000234 -0.003628  0.000000  0.382961  0.009605 -0.002335  0.000121 -0.000000
                                 0.588139  0.018548  0.001146 -0.000806  0.000000 -0.001456 -0.001525 -0.000234 -0.003628 -0.000000
                                -0.382961 -0.009605 -0.002335  0.000121  0.000000 -0.588139 -0.018548  0.001146 -0.000806 -0.000000
                                -0.000388 -0.000109 -0.000044 -0.000029 -0.000000  0.000388  0.000109 -0.000044 -0.000029 -0.000000
                                 0.003896 -0.003896 -0.002468  0.002468  0.001713  0.000124  0.000105 -0.000066  0.000000 -0.001713
                                -0.000124  0.000105 -0.000066  0.000000  0.000010 -0.000010 -0.000026  0.000026  0.000142 -0.000142

   6.1   2   -11.0241  -42.6492 -0.004246 -0.006443 -0.001879  0.001649  0.000000  0.306357  0.006761 -0.002716  0.000392  0.000000
                                 0.631423  0.020698  0.000991 -0.000595 -0.000000 -0.004246 -0.006443  0.001879 -0.001649  0.000000
                                 0.306357  0.006761  0.002716 -0.000392 -0.000000  0.631423  0.020698 -0.000991  0.000595 -0.000000
                                 0.007271  0.000462 -0.000021 -0.000077 -0.000000  0.007271  0.000462  0.000021  0.000077  0.000000
                                -0.004331 -0.004331 -0.002099 -0.002099 -0.002091 -0.000282 -0.000191  0.000024  0.000000 -0.002091
                                -0.000282  0.000191 -0.000024 -0.000000 -0.000116 -0.000116 -0.000027 -0.000027  0.000161  0.000161

   7.1   2   -11.0239  -42.5643 -0.008503 -0.007284 -0.002350 -0.000301  0.000000  0.587800  0.024142  0.001927 -0.001047  0.000000
                                -0.382450 -0.018190  0.002883 -0.000067 -0.000000  0.008503  0.007284 -0.002350 -0.000301 -0.000000
                                -0.587800 -0.024142  0.001927 -0.001047  0.000000  0.382450  0.018190  0.002883 -0.000067 -0.000000
                                 0.004856  0.000526  0.000092 -0.000101 -0.000000 -0.004856 -0.000526  0.000092 -0.000101  0.000000
                                -0.002684  0.002684 -0.004009  0.004009 -0.001312 -0.000209 -0.000127  0.000002  0.000000  0.001312
                                 0.000209 -0.000127  0.000002 -0.000000 -0.000088  0.000088  0.000012 -0.000012 -0.000110  0.000110

   8.1   2   -11.0239  -42.5468 -0.001711 -0.002251 -0.001442 -0.003366  0.000000  0.631181  0.024842  0.001611 -0.000752 -0.000000
                                -0.305862 -0.015318  0.003051 -0.000314 -0.000000 -0.001711 -0.002251  0.001442  0.003366  0.000000
                                 0.631181  0.024842 -0.001611  0.000752 -0.000000 -0.305862 -0.015318 -0.003051  0.000314 -0.000000
                                 0.003092  0.000161 -0.000016 -0.000018  0.000000  0.003092  0.000161  0.000016  0.000018  0.000000
                                 0.002098  0.002098 -0.004310 -0.004310  0.000592 -0.000015 -0.000005 -0.000045 -0.000000  0.000592
                                -0.000015  0.000005  0.000045 -0.000000 -0.000045 -0.000045  0.000006  0.000006 -0.000085 -0.000085

   9.1   2   -11.0130  -39.2855  0.001002  0.000318 -0.000079  0.000144 -0.000000  0.000282 -0.000010  0.000105  0.000021  0.000000
                                -0.002286 -0.000011  0.000194 -0.000016 -0.000000 -0.001002 -0.000318 -0.000079  0.000144 -0.000000
                                -0.000282  0.000010  0.000105  0.000021  0.000000  0.002286  0.000011  0.000194 -0.000016 -0.000000
                                -0.018059 -0.006196  0.002139  0.002491  0.000000  0.018059  0.006196  0.002139  0.002491 -0.000000
                                 0.000065 -0.000065 -0.000007  0.000007  0.701403  0.025431  0.000755  0.001410 -0.000000 -0.701403
                                -0.025431  0.000755  0.001410  0.000000  0.000245 -0.000245  0.004813 -0.004813  0.004607 -0.004607

  10.1   2   -11.0130  -39.2855  0.000971  0.000319 -0.000076  0.000143 -0.000000  0.000561 -0.000137  0.000009  0.000047  0.000000
                                 0.002330  0.000001 -0.000186  0.000011 -0.000000  0.000971  0.000319  0.000076 -0.000143  0.000000
                                 0.000561 -0.000137 -0.000009 -0.000047 -0.000000  0.002330  0.000001  0.000186 -0.000011  0.000000
                                -0.018052 -0.006196  0.002138  0.002490 -0.000000 -0.018052 -0.006196 -0.002138 -0.002490 -0.000000
                                 0.000066  0.000066 -0.000009 -0.000009  0.701403  0.025430  0.000755  0.001410 -0.000000  0.701403
                                 0.025430 -0.000755 -0.001410 -0.000000  0.000244  0.000244 -0.004813 -0.004813 -0.004607 -0.004607

  11.1   2    -1.0931  -19.2112 -0.108488  0.276768  0.027534 -0.006133 -0.000000 -0.092253  0.235473  0.009931 -0.051189  0.000000
                                -0.093002  0.237777 -0.027411 -0.043885 -0.000000 -0.108488  0.276768 -0.027534  0.006133  0.000000
                                -0.092253  0.235473 -0.009931  0.051189  0.000000 -0.093002  0.237777  0.027411  0.043885 -0.000000
                                -0.058300  0.148598  0.030358 -0.021422 -0.000000 -0.058300  0.148598 -0.030358  0.021422  0.000000
                                 0.043577  0.043577  0.041835  0.041835 -0.031816  0.080785  0.022985  0.018971  0.000000 -0.031816
                                 0.080785 -0.022985 -0.018971 -0.000000  0.028321  0.028321  0.013961  0.013961  0.018193  0.018193

  12.1   2    -1.0331  -17.8524 -0.101660  0.266241 -0.040303  0.001208  0.000000 -0.033384  0.087980 -0.055272 -0.026452 -0.000000
                                 0.043171 -0.114101 -0.040877  0.044813  0.000000  0.101660 -0.266241 -0.040303  0.001208 -0.000000
                                 0.033384 -0.087980 -0.055272 -0.026452  0.000000 -0.043171  0.114101 -0.040877  0.044813 -0.000000
                                -0.114027  0.295902  0.014871 -0.046479  0.000000  0.114027 -0.295902  0.014871 -0.046479 -0.000000
                                 0.030722 -0.030722  0.021920 -0.021920 -0.081081  0.210422  0.047303  0.046736 -0.000000  0.081081
                                -0.210422  0.047303  0.046736  0.000000  0.063439 -0.063439 -0.043937  0.043937 -0.048385  0.048385

  13.1   2    -0.9797  -16.9473  0.001785 -0.004862 -0.103169  0.010224 -0.000000  0.055173 -0.146319 -0.035061  0.020369  0.000000
                                 0.047680 -0.126075  0.050573  0.002971 -0.000000  0.001785 -0.004862  0.103169 -0.010224  0.000000
                                 0.055173 -0.146319  0.035061 -0.020369 -0.000000  0.047680 -0.126075 -0.050573 -0.002971 -0.000000
                                -0.114210  0.301307 -0.051075 -0.056242  0.000000 -0.114210  0.301307  0.051075  0.056242  0.000000
                                -0.019470 -0.019470 -0.029221 -0.029221 -0.112183  0.297532  0.047488  0.060821 -0.000000 -0.112183
                                 0.297532 -0.047488 -0.060821  0.000000  0.072717  0.072717  0.073903  0.073903  0.070325  0.070325

  14.1   2    -0.9478  -18.3381 -0.018981  0.051729  0.027646  0.125907  0.000000 -0.132671  0.361533  0.052352 -0.005449 -0.000000
                                -0.115065  0.313530 -0.068752  0.035756  0.000000  0.018981 -0.051729  0.027646  0.125907  0.000000
                                 0.132671 -0.361533  0.052352 -0.005449 -0.000000  0.115065 -0.313530 -0.068752  0.035756 -0.000000
                                -0.002787  0.008501  0.021505  0.022475  0.000000  0.002787 -0.008501  0.021505  0.022475  0.000000
                                -0.088938  0.088938  0.099977 -0.099977  0.014988 -0.039797 -0.006474  0.001571 -0.000000 -0.014988
                                 0.039797 -0.006474  0.001571 -0.000000  0.010457 -0.010457  0.009202 -0.009202  0.016748 -0.016748

  15.1   2    -0.9049  -17.3902  0.100271 -0.278512 -0.056345  0.023444  0.000000  0.036968 -0.102955  0.096655  0.038222 -0.000000
                                -0.076859  0.214035  0.041705 -0.057756 -0.000000 -0.100271  0.278512 -0.056345  0.023444  0.000000
                                -0.036968  0.102955  0.096655  0.038222  0.000000  0.076859 -0.214035  0.041705 -0.057756 -0.000000
                                -0.049635  0.132904 -0.128969 -0.044118  0.000000  0.049635 -0.132904 -0.128969 -0.044118  0.000000
                                -0.057178  0.057178 -0.029393  0.029393 -0.105737  0.290273  0.012580  0.047246 -0.000000  0.105737
                                -0.290273  0.012580  0.047246 -0.000000  0.041139 -0.041139 -0.092761  0.092761 -0.073712  0.073712

  16.1   2    -0.8026  -16.8095 -0.071781  0.208483 -0.072056  0.123110 -0.000000 -0.002624  0.008504 -0.157489 -0.030185 -0.000000
                                 0.081733 -0.235761  0.018275 -0.067589 -0.000000 -0.071781  0.208483  0.072056 -0.123110 -0.000000
                                -0.002624  0.008504  0.157489  0.030185  0.000000  0.081733 -0.235761 -0.018275  0.067589  0.000000
                                -0.051814  0.155421  0.131973  0.079042  0.000000 -0.051814  0.155421 -0.131973 -0.079042  0.000000
                                -0.114705 -0.114705  0.015651  0.015651  0.081240 -0.236116  0.029466  0.030478  0.000000  0.081240
                                -0.236116 -0.029466 -0.030478 -0.000000  0.075405  0.075405 -0.094408 -0.094408 -0.107894 -0.107894

  17.1   2    -0.7623  -17.3555  0.053419 -0.158252  0.074375  0.181780  0.000000 -0.107458  0.319056 -0.030789  0.074640  0.000000
                                 0.055526 -0.166176 -0.166349  0.089710  0.000000  0.053419 -0.158252 -0.074375 -0.181780 -0.000000
                                -0.107458  0.319056  0.030789 -0.074640 -0.000000  0.055526 -0.166176  0.166349 -0.089710 -0.000000
                                 0.002330 -0.008009 -0.092436  0.045909  0.000000  0.002330 -0.008009  0.092436 -0.045909 -0.000000
                                -0.086152 -0.086152  0.169182  0.169182 -0.039086  0.117278 -0.052437  0.026557  0.000000 -0.039086
                                 0.117278  0.052437 -0.026557 -0.000000  0.042451  0.042451  0.078126  0.078126  0.017107  0.017107

  18.1   2    -0.7264  -15.3860  0.007164 -0.020637 -0.139581  0.055979  0.000000  0.051968 -0.159085  0.002515  0.000574  0.000000
                                -0.029054  0.088499  0.086213 -0.030735 -0.000000 -0.007164  0.020637 -0.139581  0.055979  0.000000
                                -0.051968  0.159085  0.002515  0.000574  0.000000  0.029054 -0.088499  0.086213 -0.030735 -0.000000
                                -0.095595  0.293722  0.045148  0.118278 -0.000000  0.095595 -0.293722  0.045148  0.118278  0.000000
                                -0.066982  0.066982 -0.058017  0.058017  0.080741 -0.249379  0.064119  0.122394  0.000000 -0.080741
                                 0.249379  0.064119  0.122394 -0.000000  0.175877 -0.175877  0.108832 -0.108832  0.174692 -0.174692

  19.1   2    -0.6897  -16.3291  0.051593 -0.155728 -0.148549 -0.015414 -0.000000 -0.004626  0.017528  0.095766  0.176207  0.000000
                                -0.050116  0.159663  0.038580  0.194608  0.000000  0.051593 -0.155728  0.148549  0.015414 -0.000000
                                -0.004626  0.017528 -0.095766 -0.176207 -0.000000 -0.050116  0.159663 -0.038580 -0.194608 -0.000000
                                -0.059621  0.184781  0.002316  0.075954  0.000000 -0.059621  0.184781 -0.002316 -0.075954  0.000000
                                 0.174531  0.174531  0.100932  0.100932  0.055103 -0.174833  0.070481  0.076251  0.000000  0.055103
                                -0.174833 -0.070481 -0.076251  0.000000  0.126685  0.126685 -0.096784 -0.096784 -0.103318 -0.103318

  20.1   2    -0.6392  -15.6121  0.023501 -0.075498  0.120746 -0.070915  0.000000  0.018705 -0.065772  0.125949 -0.133323 -0.000000
                                -0.024810  0.073847 -0.110614 -0.085378 -0.000000  0.023501 -0.075498 -0.120746  0.070915  0.000000
                                 0.018705 -0.065772 -0.125949  0.133323  0.000000 -0.024810  0.073847  0.110614  0.085378  0.000000
                                -0.035299  0.112394 -0.177041  0.108989 -0.000000 -0.035299  0.112394  0.177041 -0.108989 -0.000000
                                -0.082144 -0.082144 -0.142926 -0.142926  0.020269 -0.071949 -0.049051  0.211635 -0.000000  0.020269
                                -0.071949  0.049051 -0.211635 -0.000000  0.159271  0.159271  0.056903  0.056903 -0.194907 -0.194907

  21.1   2    -0.6133  -15.8733  0.019655 -0.064350  0.173473  0.089289  0.000000 -0.027717  0.091233 -0.171289  0.016157  0.000000
                                 0.047634 -0.154796  0.076620 -0.076750 -0.000000 -0.019655  0.064350  0.173473  0.089289  0.000000
                                 0.027717 -0.091233 -0.171289  0.016157 -0.000000 -0.047634  0.154796  0.076620 -0.076750 -0.000000
                                 0.016077 -0.050684 -0.146494  0.197744 -0.000000 -0.016077  0.050684 -0.146494  0.197744  0.000000
                                 0.065673 -0.065673  0.098594 -0.098594 -0.006771  0.024329 -0.197448  0.104285  0.000000  0.006771
                                -0.024329 -0.197448  0.104285 -0.000000  0.156275 -0.156275 -0.182172  0.182172  0.089052 -0.089052

  22.1   2    -0.5702  -15.7836  0.068029 -0.229614 -0.102277  0.028026  0.000000 -0.034718  0.120170  0.012759  0.191388 -0.000000
                                 0.027868 -0.098696 -0.130738 -0.218622 -0.000000 -0.068029  0.229614 -0.102277  0.028026  0.000000
                                 0.034718 -0.120170  0.012759  0.191388  0.000000 -0.027868  0.098696 -0.130738 -0.218622  0.000000
                                -0.019532  0.065086 -0.007240  0.036054  0.000000  0.019532 -0.065086 -0.007240  0.036054 -0.000000
                                 0.267690 -0.267690  0.206648 -0.206648  0.015943 -0.053675  0.121805 -0.075797 -0.000000 -0.015943
                                 0.053675  0.121805 -0.075797  0.000000  0.070484 -0.070484  0.138556 -0.138556 -0.081567  0.081567

  23.1   2    -0.5623  -16.5735  0.015599 -0.051545  0.057874 -0.254839  0.000000 -0.021105  0.071727  0.141055  0.140752 -0.000000
                                 0.029543 -0.099162 -0.135251  0.160602  0.000000 -0.015599  0.051545  0.057874 -0.254839 -0.000000
                                 0.021105 -0.071727  0.141055  0.140752  0.000000 -0.029543  0.099162 -0.135251  0.160602 -0.000000
                                -0.006769  0.013084 -0.176969 -0.106238 -0.000000  0.006769 -0.013084 -0.176969 -0.106238 -0.000000
                                -0.000640  0.000640  0.109597 -0.109597  0.011567 -0.051748  0.048357  0.243798  0.000000 -0.011567
                                 0.051748  0.048357  0.243798  0.000000 -0.026944  0.026944 -0.007905  0.007905  0.210729 -0.210729

  24.1   2    -0.5378  -15.1153  0.020449 -0.068922 -0.015820 -0.038581 -0.000000 -0.024791  0.084543  0.096297  0.022530 -0.000000
                                 0.015943 -0.059499 -0.145587 -0.044555  0.000000  0.020449 -0.068922  0.015820  0.038581 -0.000000
                                -0.024791  0.084543 -0.096297 -0.022530  0.000000  0.015943 -0.059499  0.145587  0.044555 -0.000000
                                -0.027435  0.082163 -0.075267 -0.291739 -0.000000 -0.027435  0.082163  0.075267  0.291739  0.000000
                                -0.140301 -0.140301  0.028592  0.028592 -0.005044  0.001803  0.295827  0.112836  0.000000 -0.005044
                                 0.001803 -0.295827 -0.112836  0.000000 -0.178876 -0.178876 -0.213118 -0.213118 -0.063787 -0.063787

  25.1   2    -0.5210  -16.7365  0.002671 -0.009481 -0.087646 -0.052184  0.000000  0.026938 -0.086682 -0.164744  0.298021 -0.000000
                                 0.017150 -0.055279  0.252090  0.146520 -0.000000 -0.002671  0.009481 -0.087646 -0.052184 -0.000000
                                -0.026938  0.086682 -0.164744  0.298021 -0.000000 -0.017150  0.055279  0.252090  0.146520 -0.000000
                                 0.003173 -0.008852  0.078269 -0.015526 -0.000000 -0.003173  0.008852  0.078269 -0.015526 -0.000000
                                -0.217163  0.217163  0.258890 -0.258890 -0.009301  0.035254 -0.002527 -0.082356 -0.000000  0.009301
                                -0.035254 -0.002527 -0.082356 -0.000000 -0.029448  0.029448  0.007190 -0.007190 -0.063092  0.063092

  26.1   2    -0.5035  -14.4852 -0.029556  0.104654 -0.032590 -0.069897  0.000000  0.001528  0.001440 -0.128367  0.133251 -0.000000
                                 0.000665 -0.000388  0.154529 -0.037439 -0.000000 -0.029556  0.104654  0.032590  0.069897 -0.000000
                                 0.001528  0.001440  0.128367 -0.133251  0.000000  0.000665 -0.000388 -0.154529  0.037439 -0.000000
                                 0.024950 -0.097912 -0.004056 -0.161364  0.000000  0.024950 -0.097912  0.004056  0.161364 -0.000000
                                 0.030077  0.030077  0.146302  0.146302 -0.003916  0.008925 -0.151091  0.262007  0.000000 -0.003916
                                 0.008925  0.151091 -0.262007  0.000000 -0.187676 -0.187676  0.216653  0.216653 -0.259574 -0.259574

  27.1   2    -0.4848  -16.3109 -0.007195  0.025433 -0.062444 -0.203830  0.000000  0.015524 -0.057082  0.216147  0.059317  0.000000
                                -0.000728  0.000844 -0.154691  0.164689  0.000000  0.007195 -0.025433 -0.062444 -0.203830  0.000000
                                -0.015524  0.057082  0.216147  0.059317  0.000000  0.000728 -0.000844 -0.154691  0.164689 -0.000000
                                 0.004478 -0.001423  0.087499  0.276034  0.000000 -0.004478  0.001423  0.087499  0.276034 -0.000000
                                -0.017979  0.017979 -0.029724  0.029724  0.016724 -0.045628 -0.176726 -0.190874 -0.000000 -0.016724
                                 0.045628 -0.176726 -0.190874  0.000000  0.227385 -0.227385 -0.080651  0.080651 -0.128832  0.128832

  28.1   2    -0.4660  -17.4511  0.000000 -0.000000 -0.000000  0.000000  0.332109 -0.000000  0.000000  0.000000 -0.000000  0.293554
                                 0.000000 -0.000000 -0.000000  0.000000  0.293067 -0.000000  0.000000  0.000000 -0.000000  0.332109
                                -0.000000 -0.000000 -0.000000  0.000000  0.293554  0.000000  0.000000  0.000000 -0.000000  0.293067
                                -0.000000  0.000000  0.000000  0.000000  0.181685 -0.000000 -0.000000 -0.000000 -0.000000  0.181685
                                 0.000000  0.000000 -0.000000 -0.000000 -0.000000  0.000000  0.000000  0.000000  0.110045  0.000000
                                -0.000000 -0.000000 -0.000000  0.110045 -0.000000  0.000000  0.000000  0.000000  0.000000 -0.000000

  29.1   2    -0.4494  -15.3839  0.010345 -0.040890  0.284213 -0.046553 -0.000000 -0.011500  0.039032 -0.052024 -0.086143  0.000000
                                 0.012088 -0.039605  0.072197  0.123329  0.000000 -0.010345  0.040890  0.284213 -0.046553 -0.000000
                                 0.011500 -0.039032 -0.052024 -0.086143  0.000000 -0.012088  0.039605  0.072197  0.123329  0.000000
                                -0.004819  0.020325 -0.253456  0.083565  0.000000  0.004819 -0.020325 -0.253456  0.083565  0.000000
                                -0.090892  0.090892 -0.036537  0.036537 -0.005966  0.013720  0.250560 -0.106363  0.000000  0.005966
                                -0.013720  0.250560 -0.106363  0.000000  0.175731 -0.175731  0.268231 -0.268231 -0.166805  0.166805

  30.1   2    -0.4176  -16.7345 -0.005158  0.026036 -0.240862  0.166718  0.000000 -0.004578  0.010841  0.220472 -0.112623  0.000000
                                -0.003339  0.012840 -0.222070  0.182703 -0.000000 -0.005158  0.026036  0.240862 -0.166718 -0.000000
                                -0.004578  0.010841 -0.220472  0.112623 -0.000000 -0.003339  0.012840  0.222070 -0.182703 -0.000000
                                -0.015886  0.058613  0.264110 -0.076808 -0.000000 -0.015886  0.058613 -0.264110  0.076808 -0.000000
                                -0.018447 -0.018447 -0.202835 -0.202835  0.001064  0.003266 -0.144827  0.022672 -0.000000  0.001064
                                 0.003266  0.144827 -0.022672 -0.000000 -0.152492 -0.152492  0.152858  0.152858 -0.077541 -0.077541

  31.1   2    -0.4157  -16.9113  0.000340 -0.003760  0.161584  0.275920 -0.000000 -0.011129  0.035017 -0.185659 -0.237065 -0.000000
                                 0.012633 -0.038217  0.124919  0.234119 -0.000000  0.000340 -0.003760 -0.161584 -0.275920 -0.000000
                                -0.011129  0.035017  0.185659  0.237065 -0.000000  0.012633 -0.038217 -0.124919 -0.234119  0.000000
                                 0.004338 -0.023955 -0.128576 -0.082881  0.000000  0.004338 -0.023955  0.128576  0.082881 -0.000000
                                 0.273501  0.273501 -0.173353 -0.173353 -0.006512  0.016362  0.106953  0.113681  0.000000 -0.006512
                                 0.016362 -0.106953 -0.113681  0.000000 -0.069813 -0.069813 -0.060725 -0.060725 -0.049227 -0.049227

  32.1   2    -0.3851  -16.2927 -0.000000  0.000000  0.000000 -0.000000  0.324550  0.000000 -0.000000 -0.000000  0.000000  0.121539
                                -0.000000 -0.000000  0.000000 -0.000000 -0.121445 -0.000000  0.000000 -0.000000  0.000000 -0.324550
                                 0.000000 -0.000000 -0.000000 -0.000000 -0.121539 -0.000000 -0.000000 -0.000000  0.000000  0.121445
                                 0.000000  0.000000 -0.000000 -0.000000  0.380297  0.000000  0.000000  0.000000 -0.000000 -0.380297
                                -0.000000 -0.000000  0.000000  0.000000  0.000000  0.000000  0.000000 -0.000000  0.296270  0.000000
                                 0.000000 -0.000000  0.000000 -0.296270  0.000000  0.000000 -0.000000 -0.000000  0.000000  0.000000

  33.1   2    -0.3125  -15.3885  0.000000 -0.000000 -0.000000 -0.000000 -0.045100  0.000000 -0.000000  0.000000 -0.000000 -0.182999
                                -0.000000  0.000000 -0.000000 -0.000000 -0.181377  0.000000 -0.000000  0.000000  0.000000 -0.045100
                                 0.000000 -0.000000 -0.000000  0.000000 -0.182999 -0.000000  0.000000  0.000000  0.000000 -0.181377
                                 0.000000 -0.000000  0.000000  0.000000  0.408558  0.000000  0.000000 -0.000000  0.000000  0.408558
                                -0.000000 -0.000000 -0.000000 -0.000000 -0.000000  0.000000 -0.000000 -0.000000  0.419426 -0.000000
                                 0.000000  0.000000  0.000000  0.419426 -0.000000 -0.000000  0.000000  0.000000  0.000000  0.000000

  34.1   2    -0.2744  -17.2214 -0.000000  0.000000  0.000000 -0.000000  0.004655 -0.000000  0.000000  0.000000 -0.000000  0.462806
                                 0.000000 -0.000000  0.000000 -0.000000  0.459020 -0.000000  0.000000 -0.000000  0.000000 -0.004655
                                -0.000000  0.000000  0.000000  0.000000 -0.462806  0.000000 -0.000000  0.000000  0.000000 -0.459020
                                 0.000000  0.000000  0.000000  0.000000  0.000052  0.000000 -0.000000  0.000000  0.000000 -0.000052
                                -0.000000  0.000000 -0.000000 -0.000000  0.000000 -0.000000  0.000000  0.000000 -0.005207  0.000000
                                -0.000000  0.000000 -0.000000  0.005207 -0.000000  0.000000  0.000000  0.000000 -0.000000 -0.000000

  35.1   2    -0.2133  -16.4110  0.000000 -0.000000 -0.000000 -0.000000 -0.410942  0.000000 -0.000000 -0.000000 -0.000000 -0.226562
                                -0.000000 -0.000000 -0.000000 -0.000000  0.238445  0.000000 -0.000000  0.000000  0.000000  0.410942
                                 0.000000 -0.000000  0.000000  0.000000  0.226562 -0.000000  0.000000  0.000000  0.000000 -0.238445
                                 0.000000  0.000000 -0.000000 -0.000000  0.221903  0.000000 -0.000000  0.000000 -0.000000 -0.221903
                                 0.000000  0.000000 -0.000000 -0.000000 -0.000000  0.000000 -0.000000 -0.000000  0.369738 -0.000000
                                -0.000000  0.000000 -0.000000 -0.369738 -0.000000 -0.000000 -0.000000 -0.000000 -0.000000 -0.000000

  36.1   0     0.1988  -15.8733 -0.000000 -0.000000 -0.000000 -0.000000 -0.458566  0.000000 -0.000000  0.000000  0.000000  0.235997
                                -0.000000  0.000000  0.000000 -0.000000  0.285451 -0.000000  0.000000 -0.000000  0.000000 -0.458566
                                 0.000000 -0.000000 -0.000000  0.000000  0.235997  0.000000 -0.000000  0.000000  0.000000  0.285451
                                -0.000000  0.000000  0.000000  0.000000 -0.247185  0.000000 -0.000000 -0.000000 -0.000000 -0.247185
                                -0.000000 -0.000000  0.000000 -0.000000 -0.000000  0.000000 -0.000000 -0.000000  0.431437  0.000000
                                 0.000000  0.000000  0.000000  0.431437  0.000000  0.000000  0.000000  0.000000  0.000000  0.000000

  37.1   0     0.2704  -16.6899  0.000000 -0.000000  0.000000  0.000000 -0.030638 -0.000000  0.000000 -0.000000 -0.000000  0.582178
                                 0.000000 -0.000000  0.000000  0.000000 -0.552918 -0.000000 -0.000000  0.000000 -0.000000 -0.030638
                                 0.000000 -0.000000 -0.000000  0.000000  0.582178  0.000000 -0.000000 -0.000000 -0.000000 -0.552918
                                -0.000000 -0.000000 -0.000000 -0.000000 -0.001081  0.000000  0.000000  0.000000 -0.000000 -0.001081
                                 0.000000  0.000000  0.000000 -0.000000 -0.000000 -0.000000  0.000000 -0.000000  0.016069  0.000000
                                 0.000000 -0.000000  0.000000  0.016069 -0.000000  0.000000 -0.000000 -0.000000  0.000000  0.000000

  38.1   0     0.3093  -14.6997  0.000000  0.000000 -0.000000 -0.000000 -0.038743 -0.000000 -0.000000  0.000000  0.000000  0.236768
                                -0.000000  0.000000 -0.000000  0.000000 -0.229610 -0.000000 -0.000000  0.000000 -0.000000  0.038743
                                 0.000000 -0.000000 -0.000000 -0.000000 -0.236768 -0.000000  0.000000 -0.000000 -0.000000  0.229610
                                 0.000000 -0.000000 -0.000000  0.000000 -0.518982  0.000000 -0.000000  0.000000 -0.000000  0.518982
                                -0.000000 -0.000000  0.000000 -0.000000 -0.000000  0.000000 -0.000000 -0.000000  0.528114 -0.000000
                                 0.000000  0.000000 -0.000000 -0.528114 -0.000000 -0.000000 -0.000000 -0.000000 -0.000000  0.000000

  39.1   0     0.4078  -15.5748  0.000000 -0.000000 -0.000000 -0.000000 -0.488959  0.000000 -0.000000  0.000000  0.000000  0.167466
                                 0.000000  0.000000  0.000000 -0.000000  0.190322 -0.000000 -0.000000 -0.000000  0.000000 -0.488959
                                 0.000000 -0.000000 -0.000000 -0.000000  0.167466 -0.000000  0.000000 -0.000000 -0.000000  0.190322
                                 0.000000  0.000000  0.000000 -0.000000  0.538145  0.000000 -0.000000  0.000000  0.000000  0.538145
                                -0.000000 -0.000000  0.000000  0.000000  0.000000 -0.000000 -0.000000  0.000000 -0.394242  0.000000
                                -0.000000 -0.000000 -0.000000 -0.394242  0.000000 -0.000000 -0.000000  0.000000 -0.000000 -0.000000

  40.1   0     0.5303  -16.4787  0.000000 -0.000000  0.000000  0.000000  0.544512 -0.000000  0.000000 -0.000000 -0.000000 -0.464556
                                -0.000000 -0.000000  0.000000 -0.000000  0.465666 -0.000000 -0.000000 -0.000000 -0.000000 -0.544512
                                 0.000000 -0.000000 -0.000000  0.000000  0.464556  0.000000 -0.000000 -0.000000 -0.000000 -0.465666
                                -0.000000  0.000000  0.000000 -0.000000 -0.295965  0.000000  0.000000 -0.000000  0.000000  0.295965
                                 0.000000  0.000000 -0.000000  0.000000  0.000000  0.000000  0.000000  0.000000  0.162588  0.000000
                                 0.000000 -0.000000 -0.000000 -0.162588  0.000000  0.000000  0.000000  0.000000  0.000000  0.000000

  41.1   0     0.5763  -13.5819 -0.013420  0.084073  0.058830  0.250703 -0.000000  0.004795 -0.023015  0.066874  0.323980  0.000000
                                -0.023538  0.146803  0.128853  0.349225  0.000000  0.013420 -0.084073  0.058830  0.250703  0.000000
                                -0.004795  0.023015  0.066874  0.323980 -0.000000  0.023538 -0.146803  0.128853  0.349225  0.000000
                                -0.050365  0.294258 -0.135316  0.252708  0.000000  0.050365 -0.294258 -0.135316  0.252708  0.000000
                                 0.402251 -0.402251 -0.270747  0.270747  0.044035 -0.262182 -0.110843  0.280622  0.000000 -0.044035
                                 0.262182 -0.110843  0.280622  0.000000 -0.461633  0.461633  0.064755 -0.064755 -0.401321  0.401321

  42.1   0     0.5839  -13.5607  0.021193 -0.137236  0.189473 -0.066742 -0.000000  0.045831 -0.285220  0.152405 -0.256161 -0.000000
                                 0.070253 -0.433555 -0.237579 -0.238701 -0.000000  0.021193 -0.137236 -0.189473  0.066742  0.000000
                                 0.045831 -0.285220 -0.152405  0.256161 -0.000000  0.070253 -0.433555  0.237579  0.238701  0.000000
                                -0.049617  0.288184  0.187591 -0.050984 -0.000000 -0.049617  0.288184 -0.187591  0.050984 -0.000000
                                 0.539867  0.539867  0.458145  0.458145  0.068308 -0.410688  0.077109  0.125341  0.000000  0.068308
                                -0.410688 -0.077109 -0.125341 -0.000000 -0.092076 -0.092076  0.279125  0.279125  0.255370  0.255370

  43.1   0     0.6187  -12.6567  0.014215 -0.094380 -0.037497 -0.163795 -0.000000 -0.046012  0.282550 -0.001100 -0.133094  0.000000
                                 0.033247 -0.199278  0.083592  0.083936 -0.000000  0.014215 -0.094380  0.037497  0.163795  0.000000
                                -0.046012  0.282550  0.001100  0.133094 -0.000000  0.033247 -0.199278 -0.083592 -0.083936  0.000000
                                 0.072426 -0.448245  0.199619 -0.389822 -0.000000  0.072426 -0.448245 -0.199619  0.389822  0.000000
                                 0.012078  0.012078 -0.058385 -0.058385  0.008572 -0.060255  0.346358 -0.193960  0.000000  0.008572
                                -0.060255 -0.346358  0.193960 -0.000000  0.664891  0.664891  0.426076  0.426076 -0.246289 -0.246289

  44.1   0     0.6310  -12.1224 -0.035605  0.204656  0.056505 -0.125104  0.000000  0.035974 -0.211569 -0.027708 -0.092726  0.000000
                                -0.070100  0.428038  0.168785  0.026093  0.000000  0.035605 -0.204656  0.056505 -0.125104  0.000000
                                -0.035974  0.211569 -0.027708 -0.092726  0.000000  0.070100 -0.428038  0.168785  0.026093  0.000000
                                 0.033662 -0.223886  0.031946 -0.262321 -0.000000 -0.033662  0.223886  0.031946 -0.262321  0.000000
                                 0.281384 -0.281384  0.192245 -0.192245  0.099716 -0.625979  0.317152  0.137088  0.000000 -0.099716
                                 0.625979  0.317152  0.137088  0.000000  0.335392 -0.335392 -0.570773  0.570773 -0.356441  0.356441

  45.1   0     0.6420  -13.1594 -0.045299  0.283650 -0.229253 -0.140037  0.000000 -0.077351  0.479759  0.058063  0.195237 -0.000000
                                 0.050363 -0.307228  0.068519  0.034325 -0.000000 -0.045299  0.283650  0.229253  0.140037 -0.000000
                                -0.077351  0.479759 -0.058063 -0.195237  0.000000  0.050363 -0.307228 -0.068519 -0.034325  0.000000
                                 0.013887 -0.096621 -0.318021 -0.027203  0.000000  0.013887 -0.096621  0.318021  0.027203 -0.000000
                                -0.003571 -0.003571 -0.404564 -0.404564  0.103483 -0.653147  0.017070  0.273483  0.000000  0.103483
                                -0.653147 -0.017070 -0.273483 -0.000000 -0.014914 -0.014914  0.234591  0.234591  0.602423  0.602423

  46.1   0     0.6686  -14.5155 -0.015693  0.094568  0.381243 -0.139226  0.000000  0.060543 -0.376497  0.373363 -0.333999 -0.000000
                                -0.021101  0.120929  0.237575 -0.159192 -0.000000  0.015693 -0.094568  0.381243 -0.139226 -0.000000
                                -0.060543  0.376497  0.373363 -0.333999  0.000000  0.021101 -0.120929  0.237575 -0.159192  0.000000
                                -0.079883  0.505878  0.145592  0.101140 -0.000000  0.079883 -0.505878  0.145592  0.101140 -0.000000
                                 0.123987 -0.123987  0.626354 -0.626354 -0.000687  0.011676 -0.175461 -0.035384 -0.000000  0.000687
                                -0.011676 -0.175461 -0.035384 -0.000000 -0.316440  0.316440  0.131069 -0.131069  0.008706 -0.008706

  47.1   0     0.6806  -14.8586  0.078303 -0.480816  0.370376  0.106908  0.000000 -0.056947  0.353546  0.205026  0.158727 -0.000000
                                 0.043204 -0.263797  0.251145  0.204929 -0.000000 -0.078303  0.480816  0.370376  0.106908  0.000000
                                 0.056947 -0.353546  0.205026  0.158727 -0.000000 -0.043204  0.263797  0.251145  0.204929  0.000000
                                -0.042709  0.260609  0.467059 -0.045862 -0.000000  0.042709 -0.260609  0.467059 -0.045862  0.000000
                                 0.209957 -0.209957 -0.270094  0.270094 -0.016944  0.119743  0.293783 -0.237820  0.000000  0.016944
                                -0.119743  0.293783 -0.237820  0.000000  0.049462 -0.049462 -0.310726  0.310726  0.362558 -0.362558

  48.1   0     0.7099  -15.1354 -0.137544  0.860949  0.033149 -0.143283 -0.000000  0.039112 -0.251116  0.319567  0.049417 -0.000000
                                 0.097472 -0.620783 -0.168201  0.279932  0.000000 -0.137544  0.860949 -0.033149  0.143283  0.000000
                                 0.039112 -0.251116 -0.319567 -0.049417  0.000000  0.097472 -0.620783  0.168201 -0.279932 -0.000000
                                 0.061945 -0.375057 -0.203667 -0.117165 -0.000000  0.061945 -0.375057  0.203667  0.117165  0.000000
                                 0.229608  0.229608  0.153182  0.153182 -0.047522  0.287909 -0.262743  0.027059 -0.000000 -0.047522
                                 0.287909  0.262743 -0.027059  0.000000  0.250237  0.250237 -0.389386 -0.389386 -0.099317 -0.099317

  49.1   0     0.7223  -13.4008 -0.079020  0.482868  0.041655  0.123464  0.000000  0.063677 -0.392359  0.053605  0.186278  0.000000
                                -0.086331  0.542585  0.131435  0.180011  0.000000  0.079020 -0.482868  0.041655  0.123464  0.000000
                                -0.063677  0.392359  0.053605  0.186278  0.000000  0.086331 -0.542585  0.131435  0.180011 -0.000000
                                 0.082197 -0.513261  0.018262 -0.084891 -0.000000 -0.082197  0.513261  0.018262 -0.084891  0.000000
                                 0.537316 -0.537316  0.042368 -0.042368 -0.094644  0.599830 -0.079813 -0.029410 -0.000000  0.094644
                                -0.599830 -0.079813 -0.029410  0.000000  0.338415 -0.338415  0.345342 -0.345342  0.390789 -0.390789

  50.1   0     0.7446  -14.9742 -0.073136  0.467755  0.069035  0.357761  0.000000  0.129194 -0.829223 -0.051105  0.144885  0.000000
                                -0.085179  0.548928 -0.229237  0.214941  0.000000 -0.073136  0.467755 -0.069035 -0.357761 -0.000000
                                 0.129194 -0.829223  0.051105 -0.144885 -0.000000 -0.085179  0.548928  0.229237 -0.214941 -0.000000
                                 0.055336 -0.370524 -0.095410  0.018004  0.000000  0.055336 -0.370524  0.095410 -0.018004 -0.000000
                                -0.325331 -0.325331  0.251048  0.251048  0.028919 -0.191896  0.334959  0.151729  0.000000  0.028919
                                -0.191896 -0.334959 -0.151729 -0.000000  0.102111  0.102111  0.309045  0.309045  0.224998  0.224998

  51.1   0     0.8145  -15.1360  0.005818 -0.030272 -0.054290 -0.507889 -0.000000 -0.102130  0.689673 -0.029614  0.040613  0.000000
                                -0.020017  0.148480  0.499618 -0.221329  0.000000 -0.005818  0.030272 -0.054290 -0.507889  0.000000
                                 0.102130 -0.689673 -0.029614  0.040613 -0.000000  0.020017 -0.148480  0.499618 -0.221329  0.000000
                                -0.037202  0.262770 -0.053607 -0.346322  0.000000  0.037202 -0.262770 -0.053607 -0.346322  0.000000
                                 0.177815 -0.177815 -0.320312  0.320312  0.028005 -0.203873 -0.462610 -0.060931 -0.000000 -0.028005
                                 0.203873 -0.462610 -0.060931  0.000000  0.169228 -0.169228  0.258745 -0.258745 -0.103942  0.103942

  52.1   0     0.8258  -14.8788 -0.050106  0.346536  0.570480 -0.146320 -0.000000 -0.001075  0.005243  0.177069  0.444746  0.000000
                                 0.053017 -0.349917  0.045876  0.234078  0.000000 -0.050106  0.346536 -0.570480  0.146320  0.000000
                                -0.001075  0.005243 -0.177069 -0.444746  0.000000  0.053017 -0.349917 -0.045876 -0.234078 -0.000000
                                -0.060851  0.410406  0.090224  0.243417  0.000000 -0.060851  0.410406 -0.090224 -0.243417 -0.000000
                                 0.013929  0.013929 -0.289563 -0.289563  0.006793 -0.030375  0.296973 -0.305270  0.000000  0.006793
                                -0.030375 -0.296973  0.305270 -0.000000 -0.323804 -0.323804  0.340768  0.340768 -0.270743 -0.270743

  53.1   0     0.8653  -14.8185 -0.000768 -0.001448 -0.081760  0.200502  0.000000  0.004087 -0.033877 -0.190541  0.497542  0.000000
                                -0.001717  0.019011 -0.424068 -0.509051 -0.000000 -0.000768 -0.001448  0.081760 -0.200502 -0.000000
                                 0.004087 -0.033877  0.190541 -0.497542 -0.000000 -0.001717  0.019011  0.424068  0.509051  0.000000
                                 0.063082 -0.438391  0.169079  0.129206  0.000000  0.063082 -0.438391 -0.169079 -0.129206 -0.000000
                                 0.525685  0.525685 -0.415641 -0.415641 -0.057627  0.395338  0.173696  0.196655  0.000000 -0.057627
                                 0.395338 -0.173696 -0.196655 -0.000000  0.135356  0.135356 -0.080789 -0.080789 -0.113103 -0.113103

  54.1   0     0.9026  -15.5353 -0.065748  0.461367 -0.025178  0.341382 -0.000000 -0.021312  0.144804  0.727995  0.205178 -0.000000
                                 0.088009 -0.616766  0.309338 -0.315459 -0.000000  0.065748 -0.461367 -0.025178  0.341382 -0.000000
                                 0.021312 -0.144804  0.727995  0.205178  0.000000 -0.088009  0.616766  0.309338 -0.315459  0.000000
                                 0.062395 -0.437417 -0.012914 -0.058346 -0.000000 -0.062395  0.437417 -0.012914 -0.058346 -0.000000
                                -0.299164  0.299164 -0.045772  0.045772 -0.007402  0.042228  0.049783  0.268050 -0.000000  0.007402
                                -0.042228  0.049783  0.268050 -0.000000  0.223013 -0.223013  0.059960 -0.059960 -0.228593  0.228593

  55.1   0     0.9482  -15.3826 -0.019448  0.129539 -0.317028  0.172905 -0.000000 -0.030862  0.220498  0.493615 -0.243864 -0.000000
                                 0.036746 -0.255018  0.413213 -0.177196 -0.000000 -0.019448  0.129539  0.317028 -0.172905 -0.000000
                                -0.030862  0.220498 -0.493615  0.243864 -0.000000  0.036746 -0.255018 -0.413213  0.177196 -0.000000
                                 0.071595 -0.515413 -0.023985  0.575563  0.000000  0.071595 -0.515413  0.023985 -0.575563 -0.000000
                                -0.000101 -0.000101  0.199311  0.199311 -0.058278  0.429906  0.455963  0.177814  0.000000 -0.058278
                                 0.429906 -0.455963 -0.177814 -0.000000 -0.212575 -0.212575  0.106856  0.106856 -0.119874 -0.119874

  56.1   0     0.9490  -14.1655 -0.096068  0.675480 -0.041544 -0.228247 -0.000000 -0.002131  0.029524  0.075155  0.290795  0.000000
                                -0.041976  0.283978  0.148688 -0.404977 -0.000000  0.096068 -0.675480 -0.041544 -0.228247  0.000000
                                 0.002131 -0.029524  0.075155  0.290795  0.000000  0.041976 -0.283978  0.148688 -0.404977  0.000000
                                -0.010560  0.093927 -0.451795  0.336331  0.000000  0.010560 -0.093927 -0.451795  0.336331 -0.000000
                                -0.004773  0.004773 -0.165228  0.165228  0.009871 -0.066565  0.314154 -0.465202 -0.000000 -0.009871
                                 0.066565  0.314154 -0.465202  0.000000 -0.356641  0.356641 -0.349957  0.349957  0.346913 -0.346913

  57.1   0     1.0183  -14.1498  0.024879 -0.172250  0.497089  0.072391 -0.000000 -0.009029  0.065586  0.254952  0.156200  0.000000
                                 0.002101 -0.020395  0.348894  0.080363  0.000000  0.024879 -0.172250 -0.497089 -0.072391  0.000000
                                -0.009029  0.065586 -0.254952 -0.156200  0.000000  0.002101 -0.020395 -0.348894 -0.080363  0.000000
                                 0.014971 -0.136375  0.666640 -0.078921 -0.000000  0.014971 -0.136375 -0.666640  0.078921  0.000000
                                -0.240270 -0.240270 -0.083416 -0.083416 -0.029710  0.226525 -0.097187  0.610887  0.000000 -0.029710
                                 0.226525  0.097187 -0.610887 -0.000000  0.244537  0.244537 -0.274058 -0.274058  0.378118  0.378118

  58.1   0     1.0412  -14.8370  0.009341 -0.067122 -0.165006 -0.474121 -0.000000 -0.047612  0.351473 -0.113795 -0.166263 -0.000000
                                -0.020093  0.151789  0.225129 -0.118329  0.000000 -0.009341  0.067122 -0.165006 -0.474121 -0.000000
                                 0.047612 -0.351473 -0.113795 -0.166263  0.000000  0.020093 -0.151789  0.225129 -0.118329 -0.000000
                                 0.067325 -0.516805  0.414098  0.622243  0.000000 -0.067325  0.516805  0.414098  0.622243 -0.000000
                                 0.059688 -0.059688 -0.040114  0.040114 -0.076776  0.586906  0.372325  0.547081 -0.000000  0.076776
                                -0.586906  0.372325  0.547081 -0.000000 -0.135389  0.135389  0.082191 -0.082191 -0.103729  0.103729

  59.1   0     1.1212  -15.8154 -0.002387  0.016876  0.102547  0.712112 -0.000000  0.009390 -0.069715  0.528489  0.251219  0.000000
                                -0.008787  0.062139  0.381911 -0.462634 -0.000000 -0.002387  0.016876 -0.102547 -0.712112  0.000000
                                 0.009390 -0.069715 -0.528489 -0.251219 -0.000000 -0.008787  0.062139 -0.381911  0.462634  0.000000
                                -0.030122  0.241017 -0.275546 -0.446900  0.000000 -0.030122  0.241017  0.275546  0.446900 -0.000000
                                 0.061739  0.061739 -0.021608 -0.021608  0.043050 -0.342509 -0.229184 -0.333702  0.000000  0.043050
                                -0.342509  0.229184  0.333702 -0.000000  0.145570  0.145570  0.039091  0.039091 -0.085675 -0.085675

  60.1   0     1.1431  -16.1550 -0.034424  0.258837  0.687854 -0.159564  0.000000  0.050224 -0.373494 -0.211133  0.558490 -0.000000
                                -0.049900  0.371865 -0.412000 -0.465340  0.000000  0.034424 -0.258837  0.687854 -0.159564  0.000000
                                -0.050224  0.373494 -0.211133  0.558490  0.000000  0.049900 -0.371865 -0.412000 -0.465340 -0.000000
                                -0.020785  0.146361  0.387991 -0.078749  0.000000  0.020785 -0.146361  0.387991 -0.078749 -0.000000
                                -0.291725  0.291725 -0.258184  0.258184 -0.002619  0.028854 -0.073395  0.231360 -0.000000  0.002619
                                -0.028854 -0.073395  0.231360  0.000000  0.081351 -0.081351  0.094093 -0.094093 -0.182543  0.182543

 HOMO     35.1    -0.213300 =      -5.8042eV
 LUMO     36.1     0.198799 =       5.4096eV
 LUMO-HOMO         0.412099 =      11.2138eV


 **********************************************************************************************************************************
 DATASETS  * FILE   NREC   LENGTH (MB)   RECORD NAMES
              1      19       10.93       500      610      700      900      950      970     1000      129      960     1100   
                                          VAR    BASINP    GEOM    SYMINP    ZMAT    AOBASIS   BASIS     P2S    ABASIS      S 
                                         1400     1410     1200     1210     1080     1600     1650     1300     1700   
                                           T        V       H0       H01     AOSYM     SMH    MOLCAS    ERIS     OPER   

              2       4        0.59       700     1000      520     2100   
                                         GEOM     BASIS   MCVARS     RHF  

 PROGRAMS   *        TOTAL        HF       INT
 CPU TIMES  *         1.80      0.28      1.42
 REAL TIME  *         2.42 SEC
 DISK USED  *        26.78 MB      
 **********************************************************************************************************************************

1PROGRAM * POP (Mulliken population analysis)

 
 Density matrix read from record         2100.2  Type=RHF/CHARGE (state 1.1)
 
 Population analysis by basis function type

 Unique atom        s        p        d        f        g    Total    Charge
   2  C       3.11797  2.88497  0.00000  0.00000  0.00000  6.00294  - 0.00294
   3  C       3.14091  2.91892  0.00000  0.00000  0.00000  6.05984  - 0.05984
   4  C       3.13961  2.92010  0.00000  0.00000  0.00000  6.05971  - 0.05971
   5  C       3.11797  2.88497  0.00000  0.00000  0.00000  6.00294  - 0.00294
   6  C       3.14091  2.91892  0.00000  0.00000  0.00000  6.05984  - 0.05984
   7  C       3.13961  2.92010  0.00000  0.00000  0.00000  6.05971  - 0.05971
   8  C       3.13511  2.92246  0.00000  0.00000  0.00000  6.05756  - 0.05756
   9  C       3.13511  2.92246  0.00000  0.00000  0.00000  6.05756  - 0.05756
  10  H       0.94177  0.00000  0.00000  0.00000  0.00000  0.94177  + 0.05823
  11  H       0.94177  0.00000  0.00000  0.00000  0.00000  0.94177  + 0.05823
  12  H       0.94377  0.00000  0.00000  0.00000  0.00000  0.94377  + 0.05623
  13  H       0.94377  0.00000  0.00000  0.00000  0.00000  0.94377  + 0.05623
  14  C       3.15749  2.96746  0.00000  0.00000  0.00000  6.12495  - 0.12495
  15  C       3.15749  2.96746  0.00000  0.00000  0.00000  6.12495  - 0.12495
  16  H       0.93798  0.00000  0.00000  0.00000  0.00000  0.93798  + 0.06202
  17  H       0.93798  0.00000  0.00000  0.00000  0.00000  0.93798  + 0.06202
  18  H       0.94105  0.00000  0.00000  0.00000  0.00000  0.94105  + 0.05895
  19  H       0.94105  0.00000  0.00000  0.00000  0.00000  0.94105  + 0.05895
  20  H       0.93043  0.00000  0.00000  0.00000  0.00000  0.93043  + 0.06957
  21  H       0.93043  0.00000  0.00000  0.00000  0.00000  0.93043  + 0.06957


 **********************************************************************************************************************************
 DATASETS  * FILE   NREC   LENGTH (MB)   RECORD NAMES
              1      19       10.93       500      610      700      900      950      970     1000      129      960     1100   
                                          VAR    BASINP    GEOM    SYMINP    ZMAT    AOBASIS   BASIS     P2S    ABASIS      S 
                                         1400     1410     1200     1210     1080     1600     1650     1300     1700   
                                           T        V       H0       H01     AOSYM     SMH    MOLCAS    ERIS     OPER   

              2       4        0.59       700     1000      520     2100   
                                         GEOM     BASIS   MCVARS     RHF  

 PROGRAMS   *        TOTAL       POP        HF       INT
 CPU TIMES  *         1.80      0.00      0.28      1.42
 REAL TIME  *         2.44 SEC
 DISK USED  *        26.78 MB      
 **********************************************************************************************************************************


 PROGRAM * MATROP

 
 Overlap matrix loaded to S

 MATRIX S               

 SYMMETRY BLOCK 1.1
    1.00000000   0.24836239   0.00000000   0.00000000   0.00000000   0.00000063   0.03603334  -0.04008404  -0.04433564   0.00000000   0.00000000   0.00157513  -0.00349629  -0.00117556   0.00000000   0.00000000   0.00031305  -0.00083516   0.00016493   0.00000000   0.00000000   0.00160579  -0.00283837   0.00245485   0.00000000   0.00000060   0.03577996  -0.01987447   0.05592863   0.00000000   0.00000035   0.03323704   0.05398709  -0.01159045   0.00000000   0.00000000   0.00000012  -0.00000049   0.00000010   0.00000000   0.00502688   0.00008070   0.00504251   0.00008249   0.00000000   0.00182513   0.00403092   0.00120224   0.00000000   0.00000000   0.00000000  -0.00000000  -0.00000000   0.00000000   0.00465363   0.00000005   0.00000000   0.00012209   0.00000003   0.00103347
    0.24836239   1.00000000   0.00000000   0.00000000   0.00000000   0.03603334   0.35634498  -0.25606973  -0.28323032   0.00000000   0.00157513   0.05595687  -0.07885346  -0.02651286   0.00000000   0.00031305   0.02228438  -0.03566268   0.00704274   0.00000000   0.00160579   0.05658419  -0.06354651   0.05496013   0.00000000   0.03577996   0.35490286  -0.12749415   0.35878055   0.00000000   0.03323704   0.34011889   0.36139625  -0.07758793   0.00000000   0.00000012   0.00031448  -0.00067540   0.00013728   0.00000000   0.09214462   0.00594046   0.09235000   0.00602307   0.00182513   0.06093872   0.08596363   0.02563904   0.00000000   0.00000000   0.00001458  -0.00003742  -0.00000100   0.00000000   0.08719326   0.00007197   0.00000075   0.00770784   0.00005065   0.03081161
    0.00000000   0.00000000   1.00000000   0.00000000   0.00000000   0.04008404   0.25606973  -0.03343937  -0.26556199   0.00000000   0.00349629   0.07885346  -0.09910528  -0.04112296   0.00000000   0.00083516   0.03566268  -0.05283140   0.01210949   0.00000000   0.00283837   0.06354651  -0.05509047   0.06796222   0.00000000   0.01987447   0.12749415   0.14584670   0.16803085   0.00000000  -0.05398709  -0.36139625  -0.30198321   0.10657221   0.00000000   0.00000049   0.00067540  -0.00136906   0.00029888   0.00000000  -0.01293704   0.00874407   0.03364526   0.00639581  -0.00403092  -0.08596363  -0.10836313  -0.03992670   0.00000000   0.00000000   0.00003742  -0.00009173  -0.00000258   0.00000000  -0.09039299   0.00014387   0.00000198  -0.01257939   0.00010846  -0.03451005
    0.00000000   0.00000000   0.00000000   1.00000000   0.00000000   0.04433564   0.28323032  -0.26556199  -0.08707307   0.00000000   0.00117556   0.02651286  -0.04112296   0.00937420   0.00000000  -0.00016493  -0.00704274   0.01210949   0.00609663   0.00000000  -0.00245485  -0.05496013   0.06796222  -0.03528976   0.00000000  -0.05592863  -0.35878055   0.16803085  -0.26729749   0.00000000   0.01159045   0.07758793   0.10657221   0.17153879   0.00000000  -0.00000010  -0.00013728   0.00029888   0.00004062   0.00000000  -0.11900625   0.00465235   0.11512441  -0.00773003  -0.00120224  -0.02563904  -0.03992670   0.01359645   0.00000000   0.00000000   0.00000100  -0.00000258   0.00000453   0.00000000   0.06957674  -0.00006010  -0.00000009  -0.00101655   0.00002679  -0.02909167
    0.00000000   0.00000000   0.00000000   0.00000000   1.00000000   0.00000000   0.00000000   0.00000000   0.00000000   0.20665634   0.00000000   0.00000000   0.00000000   0.00000000   0.02320095   0.00000000   0.00000000   0.00000000   0.00000000   0.00848804   0.00000000   0.00000000   0.00000000   0.00000000   0.02348944   0.00000000   0.00000000   0.00000000   0.00000000   0.20555716   0.00000000   0.00000000   0.00000000   0.00000000   0.19441871   0.00000000   0.00000000   0.00000000   0.00000000   0.00010137   0.00000000   0.00000000   0.00000000   0.00000000   0.00000000   0.00000000   0.00000000   0.00000000   0.02550476   0.00000000   0.00000000   0.00000000   0.00000000   0.00000460   0.00000000   0.00000000   0.00000000   0.00000000   0.00000000   0.00000000
[...]
   -0.00000049  -0.00067540  -0.00136906   0.00029888   0.00000000  -0.00000910  -0.00293556  -0.00457942   0.00300640   0.00000000  -0.00237640  -0.05737267  -0.05079754   0.06202656   0.00000000  -0.05398709  -0.36139625  -0.30198321   0.10657221   0.00000000  -0.00324627  -0.07577250  -0.09684633  -0.03743937   0.00000000  -0.00001109  -0.00347818  -0.00640537  -0.00089501   0.00000000  -0.00000000  -0.00000264  -0.00000715   0.00000154   0.00000000   0.00000000   0.00000000   1.00000000   0.00000000   0.00000000  -0.00037642  -0.01913826  -0.00028876  -0.03573316   0.00000000  -0.00000007  -0.00000021   0.00000001   0.00000000   0.04785997   0.27396214  -0.01760072  -0.28083053   0.00000000  -0.00000071   0.14242814   0.15371578  -0.00000000   0.03772483  -0.00000073
    0.00000010   0.00013728   0.00029888   0.00004062   0.00000000   0.00000531   0.00171227   0.00300640  -0.00117876   0.00000000   0.00206130   0.04976530   0.06202656  -0.03309139   0.00000000   0.01159045   0.07758793   0.10657221   0.17153879   0.00000000  -0.00102347  -0.02388923  -0.03743937   0.01010114   0.00000000  -0.00000142  -0.00044469  -0.00089501   0.00048058   0.00000000   0.00000000   0.00000054   0.00000154  -0.00000002   0.00000000   0.00000000   0.00000000   0.00000000   1.00000000   0.00000000  -0.00011092   0.04012234   0.00023632  -0.03154001   0.00000000   0.00000000   0.00000001   0.00000001   0.00000000   0.05293635   0.30302054  -0.28083053  -0.07431809   0.00000000   0.00000026  -0.44141025   0.04609723   0.00000000   0.11566175  -0.00000010
    0.00000000   0.00000000   0.00000000   0.00000000   0.00010137   0.00000000   0.00000000   0.00000000   0.00000000   0.00057483   0.00000000   0.00000000   0.00000000   0.00000000   0.02071071   0.00000000   0.00000000   0.00000000   0.00000000   0.19441871   0.00000000   0.00000000   0.00000000   0.00000000   0.02190486   0.00000000   0.00000000   0.00000000   0.00000000   0.00059501   0.00000000   0.00000000   0.00000000   0.00000000   0.00000029   0.00000000   0.00000000   0.00000000   0.00000000   1.00000000   0.00000000   0.00000000   0.00000000   0.00000000   0.00000000   0.00000000   0.00000000   0.00000000   0.00000001   0.00000000   0.00000000   0.00000000   0.00000000   0.23629934   0.00000000   0.00000000   0.00000000   0.00000000   0.00000000   0.00000000
    0.00502688   0.09214462  -0.01293704  -0.11900625   0.00000000   0.00008430   0.00610546  -0.00350916  -0.00953545   0.00000000   0.00001085   0.00172102  -0.00203933  -0.00234884   0.00000000   0.00008070   0.00594046  -0.00874407  -0.00465235   0.00000000   0.00526200   0.09521819  -0.11888248  -0.03225930   0.00000000   0.06126597   0.48673388  -0.30151486  -0.35381408   0.00000000   0.00100784   0.03029773   0.01913826  -0.04012234   0.00000000   0.00000028   0.00019081  -0.00037642  -0.00011092   0.00000000   1.00000000   0.00010398   0.00069813   0.05180493   0.00180746   0.04499384   0.05173486  -0.03681299   0.00000000   0.00000000   0.00000262  -0.00000608  -0.00000262   0.00000000   0.00266614   0.00019372   0.00000033   0.00439318   0.00000223   0.14004395
    0.00008070   0.00594046   0.00874407   0.00465235   0.00000000   0.00526200   0.09521819   0.11888248   0.03225930   0.00000000   0.06126597   0.48673388   0.30151486   0.35381408   0.00000000   0.00502688   0.09214462   0.01293704   0.11900625   0.00000000   0.00008430   0.00610546   0.00350916   0.00953545   0.00000000   0.00001085   0.00172102   0.00203933   0.00234884   0.00000000   0.00000028   0.00019081   0.00037642   0.00011092   0.00000000   0.00100784   0.03029773  -0.01913826   0.04012234   0.00000000   0.00010398   1.00000000   0.05180493   0.00069813   0.00000000   0.00000262   0.00000608   0.00000262   0.00000000   0.00180746   0.04499384  -0.05173486   0.03681299   0.00000000   0.00019372   0.00266614   0.00439318   0.00000033   0.14004395   0.00000223
    0.00504251   0.09235000   0.03364526   0.11512441   0.00000000   0.06102046   0.48574824  -0.14256469   0.44183343   0.00000000   0.00533602   0.09617886  -0.09872761   0.07546061   0.00000000   0.00008249   0.00602307  -0.00639581   0.00773003   0.00000000   0.00001137   0.00177097  -0.00101716   0.00302894   0.00000000   0.00008360   0.00607372   0.00040412   0.01010339   0.00000000   0.00113030   0.03272064   0.03573316   0.03154001   0.00000000   0.00000026   0.00018090  -0.00028876   0.00023632   0.00000000   0.00069813   0.05180493   1.00000000   0.00010676   0.00000595   0.00119447   0.00159988   0.00152193   0.00000000   0.00000006   0.00007839  -0.00015509   0.00006736   0.00000000   0.05114897   0.00001448   0.00000364   0.00035290   0.00065488   0.00025306
    0.00008249   0.00602307   0.00639581  -0.00773003   0.00000000   0.00001137   0.00177097   0.00101716  -0.00302894   0.00000000   0.00008360   0.00607372  -0.00040412  -0.01010339   0.00000000   0.00504251   0.09235000  -0.03364526  -0.11512441   0.00000000   0.06102046   0.48574824   0.14256469  -0.44183343   0.00000000   0.00533602   0.09617886   0.09872761  -0.07546061   0.00000000   0.00000026   0.00018090   0.00028876  -0.00023632   0.00000000   0.00113030   0.03272064  -0.03573316  -0.03154001   0.00000000   0.05180493   0.00069813   0.00010676   1.00000000   0.00000006   0.00007839   0.00015509  -0.00006736   0.00000000   0.00000595   0.00119447  -0.00159988  -0.00152193   0.00000000   0.00001448   0.05114897   0.00035290   0.00000364   0.00025306   0.00065488
    0.00000000   0.00182513  -0.00403092  -0.00120224   0.00000000   0.00000000   0.00000477  -0.00001479  -0.00000789   0.00000000   0.00000000   0.00000000  -0.00000001  -0.00000000   0.00000000   0.00000000   0.00000000  -0.00000000  -0.00000000   0.00000000   0.00000000   0.00000016  -0.00000061   0.00000013   0.00000000   0.00000000   0.00030362  -0.00080638   0.00018659   0.00000000   0.00000231   0.04303175  -0.04785997  -0.05293635   0.00000000   0.00000000   0.00000000   0.00000000   0.00000000   0.00000000   0.00180746   0.00000000   0.00000595   0.00000006   1.00000000   0.24836239   0.00000000   0.00000000   0.00000000   0.00000000   0.00000000   0.00000000   0.00000000   0.00000000   0.00595450   0.00000000   0.00000000   0.06132321   0.00000000   0.06142350
    0.00182513   0.06093872  -0.08596363  -0.02563904   0.00000000   0.00000477   0.00223818  -0.00383302  -0.00204341   0.00000000   0.00000000   0.00003927  -0.00009167  -0.00002909   0.00000000   0.00000000   0.00001458  -0.00003742  -0.00000100   0.00000000   0.00000016   0.00035773  -0.00076016   0.00016641   0.00000000   0.00030362   0.02190468  -0.03486581   0.00806777   0.00000000   0.04303175   0.39416365  -0.27396214  -0.30302054   0.00000000   0.00000000   0.00000002  -0.00000007   0.00000000   0.00000000   0.04499384   0.00000262   0.00119447   0.00007839   0.24836239   1.00000000   0.00000000   0.00000000   0.00000000   0.00000000   0.00000000  -0.00000000  -0.00000000   0.00000000   0.10408656   0.00000002   0.00000000   0.48696323   0.00000000   0.48736470
    0.00403092   0.08596363  -0.10836313  -0.03992670   0.00000000   0.00001479   0.00383302  -0.00602575  -0.00361422   0.00000000   0.00000001   0.00009167  -0.00020265  -0.00006824   0.00000000   0.00000000   0.00003742  -0.00009173  -0.00000258   0.00000000   0.00000061   0.00076016  -0.00152332   0.00035876   0.00000000   0.00080638   0.03486581  -0.05127131   0.01379195   0.00000000   0.04785997   0.27396214  -0.01760072  -0.28083053   0.00000000   0.00000000   0.00000007  -0.00000021   0.00000001   0.00000000   0.05173486   0.00000608   0.00159988   0.00015509   0.00000000   0.00000000   1.00000000   0.00000000   0.00000000   0.00000000   0.00000000  -0.00000000  -0.00000000   0.00000000   0.03533512   0.00000005   0.00000000  -0.42914898   0.00000000   0.09580075
    0.00120224   0.02563904  -0.03992670   0.01359645   0.00000000   0.00000789   0.00204341  -0.00361422  -0.00117300   0.00000000   0.00000000   0.00002909  -0.00006824  -0.00000922   0.00000000   0.00000000   0.00000100  -0.00000258   0.00000453   0.00000000  -0.00000013  -0.00016641   0.00035876   0.00003698   0.00000000  -0.00018659  -0.00806777   0.01379195   0.00514083   0.00000000   0.05293635   0.30302054  -0.28083053  -0.07431809   0.00000000   0.00000000  -0.00000000   0.00000001   0.00000001   0.00000000  -0.03681299   0.00000262   0.00152193  -0.00006736   0.00000000   0.00000000   0.00000000   1.00000000   0.00000000   0.00000000   0.00000000  -0.00000000   0.00000000   0.00000000   0.12832604  -0.00000001   0.00000000   0.17904069   0.00000000  -0.45527132
    0.00000000   0.00000000   0.00000000   0.00000000   0.02550476   0.00000000   0.00000000   0.00000000   0.00000000   0.00075377   0.00000000   0.00000000   0.00000000   0.00000000   0.00001243   0.00000000   0.00000000   0.00000000   0.00000000   0.00000460   0.00000000   0.00000000   0.00000000   0.00000000   0.00011552   0.00000000   0.00000000   0.00000000   0.00000000   0.00833222   0.00000000   0.00000000   0.00000000   0.00000000   0.23629934   0.00000000   0.00000000   0.00000000   0.00000000   0.00000001   0.00000000   0.00000000   0.00000000   0.00000000   0.00000000   0.00000000   0.00000000   0.00000000   1.00000000   0.00000000   0.00000000   0.00000000   0.00000000   0.00000000   0.00000000   0.00000000   0.00000000   0.00000000   0.00000000   0.00000000
    0.00000000   0.00000000   0.00000000   0.00000000   0.00000000   0.00000000   0.00000016   0.00000061  -0.00000013   0.00000000   0.00000000   0.00030362   0.00080638  -0.00018659   0.00000000   0.00000000   0.00182513   0.00403092   0.00120224   0.00000000   0.00000000   0.00000477   0.00001479   0.00000789   0.00000000   0.00000000   0.00000000   0.00000001   0.00000000   0.00000000   0.00000000   0.00000000   0.00000000   0.00000000   0.00000000   0.00000231   0.04303175   0.04785997   0.05293635   0.00000000   0.00000000   0.00180746   0.00000006   0.00000595   0.00000000   0.00000000   0.00000000   0.00000000   0.00000000   1.00000000   0.24836239   0.00000000   0.00000000   0.00000000   0.00000000   0.00595450   0.06132321   0.00000000   0.06142350   0.00000000
    0.00000000   0.00001458   0.00003742   0.00000100   0.00000000   0.00000016   0.00035773   0.00076016  -0.00016641   0.00000000   0.00030362   0.02190468   0.03486581  -0.00806777   0.00000000   0.00182513   0.06093872   0.08596363   0.02563904   0.00000000   0.00000477   0.00223818   0.00383302   0.00204341   0.00000000   0.00000000   0.00003927   0.00009167   0.00002909   0.00000000   0.00000000   0.00000002   0.00000007  -0.00000000   0.00000000   0.04303175   0.39416365   0.27396214   0.30302054   0.00000000   0.00000262   0.04499384   0.00007839   0.00119447   0.00000000   0.00000000   0.00000000   0.00000000   0.00000000   0.24836239   1.00000000   0.00000000   0.00000000   0.00000000   0.00000002   0.10408656   0.48696323   0.00000000   0.48736470   0.00000000
   -0.00000000  -0.00003742  -0.00009173  -0.00000258   0.00000000  -0.00000061  -0.00076016  -0.00152332   0.00035876   0.00000000  -0.00080638  -0.03486581  -0.05127131   0.01379195   0.00000000  -0.00403092  -0.08596363  -0.10836313  -0.03992670   0.00000000  -0.00001479  -0.00383302  -0.00602575  -0.00361422   0.00000000  -0.00000001  -0.00009167  -0.00020265  -0.00006824   0.00000000   0.00000000  -0.00000007  -0.00000021   0.00000001   0.00000000  -0.04785997  -0.27396214  -0.01760072  -0.28083053   0.00000000  -0.00000608  -0.05173486  -0.00015509  -0.00159988   0.00000000  -0.00000000  -0.00000000  -0.00000000   0.00000000   0.00000000   0.00000000   1.00000000   0.00000000   0.00000000  -0.00000005  -0.03533512   0.42914898  -0.00000000  -0.09580075  -0.00000000
   -0.00000000  -0.00000100  -0.00000258   0.00000453   0.00000000   0.00000013   0.00016641   0.00035876   0.00003698   0.00000000   0.00018659   0.00806777   0.01379195   0.00514083   0.00000000  -0.00120224  -0.02563904  -0.03992670   0.01359645   0.00000000  -0.00000789  -0.00204341  -0.00361422  -0.00117300   0.00000000  -0.00000000  -0.00002909  -0.00006824  -0.00000922   0.00000000   0.00000000   0.00000000   0.00000001   0.00000001   0.00000000  -0.05293635  -0.30302054  -0.28083053  -0.07431809   0.00000000  -0.00000262   0.03681299   0.00006736  -0.00152193   0.00000000  -0.00000000  -0.00000000   0.00000000   0.00000000   0.00000000   0.00000000   0.00000000   1.00000000   0.00000000   0.00000001  -0.12832604  -0.17904069   0.00000000   0.45527132  -0.00000000
    0.00000000   0.00000000   0.00000000   0.00000000   0.00000460   0.00000000   0.00000000   0.00000000   0.00000000   0.00011552   0.00000000   0.00000000   0.00000000   0.00000000   0.00833222   0.00000000   0.00000000   0.00000000   0.00000000   0.02550476   0.00000000   0.00000000   0.00000000   0.00000000   0.00075377   0.00000000   0.00000000   0.00000000   0.00000000   0.00001243   0.00000000   0.00000000   0.00000000   0.00000000   0.00000001   0.00000000   0.00000000   0.00000000   0.00000000   0.23629934   0.00000000   0.00000000   0.00000000   0.00000000   0.00000000   0.00000000   0.00000000   0.00000000   0.00000000   0.00000000   0.00000000   0.00000000   0.00000000   1.00000000   0.00000000   0.00000000   0.00000000   0.00000000   0.00000000   0.00000000
    0.00465363   0.08719326  -0.09039299   0.06957674   0.00000000   0.00108138   0.03176234  -0.04611294   0.00511898   0.00000000   0.00000406   0.00094807  -0.00176050   0.00024458   0.00000000   0.00000005   0.00007197  -0.00014387   0.00006010   0.00000000   0.00000026   0.00018028  -0.00028778   0.00023558   0.00000000   0.00006648   0.00526235  -0.00564882   0.00680871   0.00000000   0.06083841   0.48501531  -0.14242814   0.44141025   0.00000000   0.00000000   0.00000028  -0.00000071   0.00000026   0.00000000   0.00266614   0.00019372   0.05114897   0.00001448   0.00595450   0.10408656   0.03533512   0.12832604   0.00000000   0.00000000   0.00000002  -0.00000005   0.00000001   0.00000000   1.00000000   0.00000005   0.00000000   0.07670998   0.00000031   0.01373228
    0.00000005   0.00007197   0.00014387  -0.00006010   0.00000000   0.00000026   0.00018028   0.00028778  -0.00023558   0.00000000   0.00006648   0.00526235   0.00564882  -0.00680871   0.00000000   0.00465363   0.08719326   0.09039299  -0.06957674   0.00000000   0.00108138   0.03176234   0.04611294  -0.00511898   0.00000000   0.00000406   0.00094807   0.00176050  -0.00024458   0.00000000   0.00000000   0.00000028   0.00000071  -0.00000026   0.00000000   0.06083841   0.48501531   0.14242814  -0.44141025   0.00000000   0.00019372   0.00266614   0.00001448   0.05114897   0.00000000   0.00000002   0.00000005  -0.00000001   0.00000000   0.00595450   0.10408656  -0.03533512  -0.12832604   0.00000000   0.00000005   1.00000000   0.07670998   0.00000000   0.01373228   0.00000031
    0.00000000   0.00000075   0.00000198  -0.00000009   0.00000000   0.00000000   0.00001671   0.00003766  -0.00000970   0.00000000   0.00000913   0.00155011   0.00271497  -0.00076239   0.00000000   0.00012209   0.00770784   0.01257939   0.00101655   0.00000000   0.00000069   0.00032733   0.00062414   0.00019248   0.00000000   0.00000000   0.00000359   0.00000880   0.00000164   0.00000000   0.00000000   0.00000000   0.00000000  -0.00000000   0.00000000   0.00802403   0.12923601   0.15371578   0.04609723   0.00000000   0.00000033   0.00439318   0.00000364   0.00035290   0.00000000   0.00000000   0.00000000   0.00000000   0.00000000   0.06132321   0.48696323   0.42914898  -0.17904069   0.00000000   0.00000000   0.07670998   1.00000000   0.00000000   0.13132241   0.00000000
    0.00012209   0.00770784  -0.01257939  -0.00101655   0.00000000   0.00000069   0.00032733  -0.00062414  -0.00019248   0.00000000   0.00000000   0.00000359  -0.00000880  -0.00000164   0.00000000   0.00000000   0.00000075  -0.00000198   0.00000009   0.00000000   0.00000000   0.00001671  -0.00003766   0.00000970   0.00000000   0.00000913   0.00155011  -0.00271497   0.00076239   0.00000000   0.00802403   0.12923601  -0.15371578  -0.04609723   0.00000000   0.00000000   0.00000000  -0.00000000   0.00000000   0.00000000   0.00439318   0.00000033   0.00035290   0.00000364   0.06132321   0.48696323  -0.42914898   0.17904069   0.00000000   0.00000000   0.00000000  -0.00000000   0.00000000   0.00000000   0.07670998   0.00000000   0.00000000   1.00000000   0.00000000   0.13132241
    0.00000003   0.00005065   0.00010846   0.00002679   0.00000000   0.00000919   0.00155596   0.00282768   0.00011372   0.00000000   0.00156605   0.04079723   0.05736981   0.00952007   0.00000000   0.00103347   0.03081161   0.03451005   0.02909167   0.00000000   0.00000370   0.00089605   0.00123731   0.00114470   0.00000000   0.00000002   0.00004126   0.00007967   0.00004589   0.00000000   0.00000000   0.00000027   0.00000073   0.00000010   0.00000000   0.00515845   0.09386869   0.03772483   0.11566175   0.00000000   0.00000223   0.14004395   0.00065488   0.00025306   0.00000000   0.00000000   0.00000000   0.00000000   0.00000000   0.06142350   0.48736470  -0.09580075   0.45527132   0.00000000   0.00000031   0.01373228   0.13132241   0.00000000   1.00000000   0.00000001
    0.00103347   0.03081161  -0.03451005  -0.02909167   0.00000000   0.00000370   0.00089605  -0.00123731  -0.00114470   0.00000000   0.00000002   0.00004126  -0.00007967  -0.00004589   0.00000000   0.00000003   0.00005065  -0.00010846  -0.00002679   0.00000000   0.00000919   0.00155596  -0.00282768  -0.00011372   0.00000000   0.00156605   0.04079723  -0.05736981  -0.00952007   0.00000000   0.00515845   0.09386869  -0.03772483  -0.11566175   0.00000000   0.00000000   0.00000027  -0.00000073  -0.00000010   0.00000000   0.14004395   0.00000223   0.00025306   0.00065488   0.06142350   0.48736470   0.09580075  -0.45527132   0.00000000   0.00000000   0.00000000  -0.00000000  -0.00000000   0.00000000   0.01373228   0.00000031   0.00000000   0.13132241   0.00000001   1.00000000


 **********************************************************************************************************************************
 DATASETS  * FILE   NREC   LENGTH (MB)   RECORD NAMES
              1      19       10.93       500      610      700      900      950      970     1000      129      960     1100   
                                          VAR    BASINP    GEOM    SYMINP    ZMAT    AOBASIS   BASIS     P2S    ABASIS      S 
                                         1400     1410     1200     1210     1080     1600     1650     1300     1700   
                                           T        V       H0       H01     AOSYM     SMH    MOLCAS    ERIS     OPER   

              2       4        0.59       700     1000      520     2100   
                                         GEOM     BASIS   MCVARS     RHF  

 PROGRAMS   *        TOTAL    MATROP       POP        HF       INT
 CPU TIMES  *         1.82      0.02      0.00      0.28      1.42
 REAL TIME  *         2.47 SEC
 DISK USED  *        26.78 MB      
 **********************************************************************************************************************************

        HF-SCF  
   -379.74661002
 **********************************************************************************************************************************
 Variable memory released
