
 Primary working directories    : /lustre/scratch/tmp/pbs.6216304.nova
 Secondary working directories  : /lustre/scratch/tmp/pbs.6216304.nova
 Wavefunction directory         : /home/langner/wfu/
 Main file repository           : /lustre/scratch/tmp/pbs.6216304.nova/

 SHA1      : c18f7d37f9f045f75d4f3096db241dde02ddca0a
 ARCHNAME  : Linux/x86_64
 FC        : /usr/local/intel/13.1-5/composer_xe_2013.5.192/bin/intel64/ifort
 FCVERSION : 13.1.3
 BLASLIB   : -L/usr/local/intel/13.1-5/composer_xe_2013.5.192/mkl/lib/intel64 -lmkl_intel_ilp64 -lmkl_sequential -lmkl_core
 id        : dmwwroc

 Nodes     nprocs
 wn453        1

 Using customized tuning parameters: mindgm=20; mindgv=20; mindgc=6; mindgr=1; noblas=0; minvec=7
 default implementation of scratch files=df  

  ***, divinylbenzene normal mode analysis
 basis=sto-3g
 geometry={angstrom;
 C,,     1.4163719978,        0.2355121874,        0.0000000000
 C,,     0.4890015094,        1.3144209166,        0.0000000000
 C,,    -0.8947801234,        1.0867269771,        0.0000000000
 C,,    -1.4163720294,       -0.2355123705,        0.0000000000
 C,,    -0.4890015794,       -1.3144210102,        0.0000000000
 C,,     0.8947802299,       -1.0867270423,        0.0000000000
 C,,     2.8841366364,        0.5340603619,        0.0000000000
 C,,    -2.8841366816,       -0.5340602541,        0.0000000000
 H,,     1.5818369242,       -1.9427803982,        0.0000000000
 H,,    -1.5818369485,        1.9427802557,        0.0000000000
 H,,     0.8701448970,        2.3449968145,        0.0000000000
 H,,    -0.8701450118,       -2.3449968779,        0.0000000000
 C,,     3.8854284299,       -0.3632773132,        0.0000000000
 C,,    -3.8854283949,        0.3632775240,        0.0000000000
 H,,     3.1308836661,        1.6066979605,        0.0000000000
 H,,    -3.1308838129,       -1.6066978140,        0.0000000000
 H,,    -4.9342673261,        0.0437742937,        0.0000000000
 H,,     4.9342673873,       -0.0437741237,        0.0000000000
 H,,    -3.7106041810,        1.4455140984,        0.0000000000
 H,,     3.7106044660,       -1.4455139314,        0.0000000000
 }
 ks,b3lyp;
 {freq;print,hessian}

 Variables initialized (774), CPU time= 0.01 sec
 Commands  initialized (547), CPU time= 0.00 sec, 516 directives.
 Default parameters read. Elapsed time= 0.09 sec

 Checking input...
 Passed
1


                                         ***  PROGRAM SYSTEM MOLPRO  ***
                         Copyright, University College Cardiff Consultants Limited, 2008

                                    Version 2012.1 linked 19 Sep 2013 14:11:18


 **********************************************************************************************************************************
 LABEL *                                                                                 
 Linux-2.6.18-348.3.1.el5/wn453(x86_64) 64 bit serial version                            DATE: 19-Feb-14          TIME: 06:53:47  
 **********************************************************************************************************************************

 SHA1:             c18f7d37f9f045f75d4f3096db241dde02ddca0a
 **********************************************************************************************************************************

 Variable memory set to    8000000 words,  buffer space   230000 words

 SETTING BASIS          =    STO-3G


 Recomputing integrals since basis changed


 Using spherical harmonics

 Library entry C      S STO-3G               selected for orbital group  1
 Library entry C      P STO-3G               selected for orbital group  1
 Library entry H      S STO-3G               selected for orbital group  2

1PROGRAM * SEWARD (Integral evaluation for generally contracted gaussian basis sets)     Author: Roland Lindh, 1990

 Geometry written to block  1 of record 700


 Point group  C2h 



 ATOMIC COORDINATES

 NR  ATOM    CHARGE       X              Y              Z

   1  C       6.00    2.676555206    0.445053708    0.000000000
   2  C       6.00   -2.676555206   -0.445053708    0.000000000
   3  C       6.00    0.924078997    2.483895642    0.000000000
   4  C       6.00   -0.924078997   -2.483895642    0.000000000
   5  C       6.00   -1.690889482    2.053616428    0.000000000
   6  C       6.00    1.690889482   -2.053616428    0.000000000
   7  C       6.00    5.450228411    1.009227720    0.000000000
   8  C       6.00   -5.450228411   -1.009227720    0.000000000
   9  H       1.00    2.989238594   -3.671322751    0.000000000
  10  H       1.00   -2.989238594    3.671322751    0.000000000
  11  H       1.00    1.644335658    4.431401818    0.000000000
  12  H       1.00   -1.644335658   -4.431401818    0.000000000
  13  C       6.00    7.342395603   -0.686494831    0.000000000
  14  C       6.00   -7.342395603    0.686494831    0.000000000
  15  H       1.00    5.916512817    3.036218983    0.000000000
  16  H       1.00   -5.916512817   -3.036218983    0.000000000
  17  H       1.00   -9.324413963    0.082721266    0.000000000
  18  H       1.00    9.324413963   -0.082721266    0.000000000
  19  H       1.00   -7.012025953    2.731625607    0.000000000
  20  H       1.00    7.012025953   -2.731625607    0.000000000

 Bond lengths in Bohr (Angstrom)

 1-3  2.688503170  1-6  2.686054610  1-7  2.830469107  2-4  2.688503170  2-5  2.686054610
     ( 1.422694604)     ( 1.421398882)     ( 1.497819742)     ( 1.422694604)     ( 1.421398882)

  2- 8  2.830469107   3- 5  2.650132137   3-11  2.076427212   4- 6  2.650132137   4-12  2.076427212
       ( 1.497819742)       ( 1.402389528)       ( 1.098797956)       ( 1.402389528)       ( 1.098797956)

  5-10  2.074291245   6- 9  2.074291245   7-13  2.540821058   7-15  2.079931424   8-14  2.540821058
       ( 1.097667651)       ( 1.097667651)       ( 1.344544596)       ( 1.100652306)       ( 1.344544596)

  8-16  2.079931424  13-18  2.071940950  13-20  2.071642826  14-17  2.071940950  14-19  2.071642826
       ( 1.100652306)       ( 1.096423929)       ( 1.096266169)       ( 1.096423929)       ( 1.096266169)

 Bond angles

  1- 3- 5  121.33655069   1- 3-11  119.02328488   1- 6- 4  120.87203890   1- 6- 9  119.72189484

  1- 7-13  126.63663867   1- 7-15  114.45211469   2- 4- 6  121.33655069   2- 4-12  119.02328488

  2- 5- 3  120.87203890   2- 5-10  119.72189484   2- 8-14  126.63663867   2- 8-16  114.45211469

  3- 1- 6  117.79141041   3- 1- 7  119.18324005   3- 5-10  119.40606626   4- 2- 5  117.79141041

  4- 2- 8  119.18324005   4- 6- 9  119.40606626   5- 2- 8  123.02534954   5- 3-11  119.64016443

  6- 1- 7  123.02534954   6- 4-12  119.64016443   7-13-18  121.19185855   7-13-20  122.68979456

  8-14-17  121.19185855   8-14-19  122.68979456  13- 7-15  118.91124664  14- 8-16  118.91124664

 17-14-19  116.11834690  18-13-20  116.11834690

 NUCLEAR CHARGE:                   70
 NUMBER OF PRIMITIVE AOS:         180
 NUMBER OF SYMMETRY AOS:          180
 NUMBER OF CONTRACTIONS:           60   (  25Ag  +   5Au  +  25Bu  +   5Bg  )
 NUMBER OF CORE ORBITALS:          10   (   5Ag  +   0Au  +   5Bu  +   0Bg  )
 NUMBER OF VALENCE ORBITALS:       50   (  20Ag  +   5Au  +  20Bu  +   5Bg  )


 NUCLEAR REPULSION ENERGY  445.81038901


 Eigenvalues of metric

         1 0.193E+00 0.216E+00 0.224E+00 0.283E+00 0.298E+00 0.314E+00 0.321E+00 0.343E+00
         2 0.676E+00 0.773E+00 0.842E+00 0.122E+01 0.152E+01
         3 0.182E+00 0.195E+00 0.249E+00 0.262E+00 0.291E+00 0.299E+00 0.321E+00 0.360E+00
         4 0.598E+00 0.759E+00 0.109E+01 0.118E+01 0.134E+01


 Contracted 2-electron integrals neglected if value below      1.0D-11
 AO integral compression algorithm  1   Integral accuracy      1.0D-11

     2.884 MB (compressed) written to integral file ( 54.3%)


 NUMBER OF SORTED TWO-ELECTRON INTEGRALS:     529115.     BUFFER LENGTH:  32768
 NUMBER OF SEGMENTS:   1  SEGMENT LENGTH:     529115      RECORD LENGTH: 524288

 Memory used in sort:       1.09 MW

 SORT1 READ      612696. AND WROTE      513244. INTEGRALS IN      2 RECORDS. CPU TIME:     0.03 SEC, REAL TIME:     0.05 SEC
 SORT2 READ      513244. AND WROTE      529115. INTEGRALS IN     11 RECORDS. CPU TIME:     0.04 SEC, REAL TIME:     0.07 SEC

 FILE SIZES:   FILE 1:    10.7 MBYTE,  FILE 4:     8.4 MBYTE,   TOTAL:     19.1 MBYTE

 OPERATOR DM      FOR CENTER  0  COORDINATES:    0.000000    0.000000    0.000000


 **********************************************************************************************************************************
 DATASETS  * FILE   NREC   LENGTH (MB)   RECORD NAMES
              1      19       10.00       500      610      700      900      950      970     1000      129      960     1100   
                                          VAR    BASINP    GEOM    SYMINP    ZMAT    AOBASIS   BASIS     P2S    ABASIS      S 
                                         1400     1410     1200     1210     1080     1600     1650     1300     1700   
                                           T        V       H0       H01     AOSYM     SMH    MOLCAS    ERIS     OPER   

 PROGRAMS   *        TOTAL       INT
 CPU TIMES  *         0.96      0.87
 REAL TIME  *         2.07 SEC
 DISK USED  *        19.56 MB      
 **********************************************************************************************************************************

 Density functional group B3LYP=B88+DIRAC+LYP+VWN5
 Functional: B88(Automatically generated (new) B88)                            Gradient terms: 1
 Functional: DIRAC(Automatically generated (new) DIRAC)                        Gradient terms: 0
 Functional: LYP(Automatically generated (new) LYP)                            Gradient terms: 1
 Functional: VWN5(Automatically generated (new) VWN5)                          Gradient terms: 0
 Use grid at  1800.2
 

 Exact exchange will be calculated, factor:  0.2000

 Functional: B88                       Factor:  0.7200
 Functional: DIRAC                     Factor:  0.0800
 Functional: LYP                       Factor:  0.8100
 Functional: VWN5                      Factor:  0.1900
 
 Generated new metagrid on record  1800.2 with target accuracy 1.0D-06 and 24610 points in CPU time    0.6
 Computed new grid on record 1800.1 in CPU time    0.8
   52543 words reserved for DFT integration

 PROGRAM * RKS-SCF (Restricted closed shell Kohn-Sham)     Authors: W. Meyer, H.-J. Werner, P.J. Knowles, 1993

 NUMBER OF ELECTRONS:      35+   35-
 CONVERGENCE THRESHOLDS:    1.00E-06 (Density)    1.40E-06 (Energy)
 MAX. NUMBER OF ITERATIONS:       60
 INTERPOLATION TYPE:            DIIS
 INTERPOLATION STEPS:              2 (START)      1 (STEP)
 LEVEL SHIFTS:                  0.00 (CLOSED)  0.00 (OPEN) 



 Use fine grid record 1800.2 for energy threshold  1.0D-06
 Orbital guess generated from atomic densities. Full valence occupancy:   25   5  25   5

 Molecular orbital dump at record        2100.2

 Initial alpha occupancy:  15   2  15   3
 Initial beta  occupancy:  15   2  15   3
 Wave function symmetry:    1

 ITERATION    DDIFF          GRAD             ENERGY        2-EL.EN.            DIPOLE MOMENTS         DIIS   ORB.
    1      0.000D+00      0.000D+00      -381.99107005   1245.842517    0.00000    0.00000    0.00000    0    start
    2      0.000D+00      0.106D-01      -381.97882231   1232.342781    0.00000    0.00000    0.00000    1    diag
    3      0.406D-01      0.127D-01      -382.04430793   1237.775422    0.00000    0.00000    0.00000    2    diag
    4      0.256D-01      0.405D-02      -382.05065059   1238.100954    0.00000    0.00000    0.00000    3    diag
    5      0.671D-02      0.391D-03      -382.05070124   1238.103338    0.00000    0.00000    0.00000    4    diag
    6      0.764D-03      0.153D-03      -382.05071067   1238.106803    0.00000    0.00000    0.00000    5    diag
    7      0.276D-03      0.366D-04      -382.05071117   1238.107575    0.00000    0.00000    0.00000    6    diag
    8      0.639D-04      0.681D-05      -382.05071120   1238.107495    0.00000    0.00000    0.00000    7    diag
    9      0.125D-04      0.104D-05      -382.05071120   1238.107611    0.00000    0.00000    0.00000    8    diag
   10      0.224D-05      0.503D-06      -382.05071120   1238.107642    0.00000    0.00000    0.00000    9    orth
   11      0.768D-06      0.301D-07      -382.05071120   1238.107649    0.00000    0.00000    0.00000    0    orth

 Final occupancy:  15   2  15   3

 !RKS STATE 1.1 Energy               -382.050711195855
 Nuclear energy                       445.81038901
 One-electron energy                -1400.38921196
 Two-electron energy                  619.05382444
 SCF exchange energy                  -55.29325390     Factor= 0.2000
 Density functional                   -46.52571268     B88=-55.31214433 DIRAC=-49.79030031 LYP= -2.30532872 VWN5= -4.47593932
 Virial quotient                       -1.01652325
 !RKS STATE 1.1 Dipole moment           0.00000000     0.00000000     0.00000000
 Dipole moment /Debye                   0.00000000     0.00000000     0.00000000

 Orbital energies:

         1.1          2.1          3.1          4.1          5.1          6.1          7.1          8.1          9.1         10.1
    -10.016161   -10.004105   -10.002789   -10.001932    -9.988350    -0.805742    -0.714216    -0.584953    -0.555256    -0.506442

        11.1         12.1         13.1         14.1         15.1         16.1         17.1
     -0.453741    -0.392319    -0.343598    -0.289107    -0.283753     0.335755     0.384933

         1.2          2.2          3.2          4.2
     -0.320804    -0.208760     0.041017     0.093957

         1.3          2.3          3.3          4.3          5.3          6.3          7.3          8.3          9.3         10.3
    -10.016208   -10.004106   -10.002792   -10.002070    -9.988350    -0.750217    -0.696055    -0.663798    -0.527948    -0.435610

        11.3         12.3         13.3         14.3         15.3         16.3         17.3
     -0.406947    -0.394215    -0.370295    -0.347416    -0.307552     0.344278     0.382895

         1.4          2.4          3.4          4.4          5.4
     -0.259846    -0.191389    -0.149423     0.114197     0.276050

 HOMO      3.4    -0.149423 =      -4.0660eV
 LUMO      3.2     0.041017 =       1.1161eV
 LUMO-HOMO         0.190440 =       5.1821eV


 **********************************************************************************************************************************
 DATASETS  * FILE   NREC   LENGTH (MB)   RECORD NAMES
              1      20       10.79       500      610      700      900      950      970     1000      129      960     1100   
                                          VAR    BASINP    GEOM    SYMINP    ZMAT    AOBASIS   BASIS     P2S    ABASIS      S 
                                         1400     1410     1200     1210     1080     1600     1650     1300     1700     1800   
                                           T        V       H0       H01     AOSYM     SMH    MOLCAS    ERIS     OPER     GRID   

              2       5        0.50       700     1000      520     1800     2100   
                                         GEOM     BASIS   MCVARS    GRID      RKS  

 PROGRAMS   *        TOTAL        KS       INT
 CPU TIMES  *         4.24      3.28      0.87
 REAL TIME  *        13.98 SEC
 DISK USED  *        19.56 MB      
 **********************************************************************************************************************************


 PROGRAM * HESSIAN

 *** Long output written to logfile /home/langner/basicMolpro2012/dvb_ir.log ***


 Computing numerical hessian using default procedure for command KS-SCF

 Symmetry elements for unique displacements: Z  XY 

 Using no symmetry in wavefunction calculations

 Running default procedure: KS-SCF000
 

 Recomputing wavefunction at reference geometry

 Numerically approximating hessian using central gradient differences

 Task list generated. Total number of displacements:     50

    5 tasks completed, CPU=1m 22s Elapsed=1m 46s
   10 tasks completed, CPU=2m 44s Elapsed=3m 21s
   15 tasks completed, CPU=4m 6s Elapsed=4m 57s
   20 tasks completed, CPU=5m 28s Elapsed=6m 33s
   25 tasks completed, CPU=6m 47s Elapsed=8m 3s
   30 tasks completed, CPU=8m 5s Elapsed=9m 31s
   35 tasks completed, CPU=9m 27s Elapsed=11m 19s
   40 tasks completed, CPU=10m 46s Elapsed=12m 59s
   45 tasks completed, CPU=12m 6s Elapsed=14m 33s
   50 tasks completed, CPU=13m 26s Elapsed=16m 3s

 Numerical KS-SCF000 hessian completed. CPU-time:   806.07 sec, Elapsed:   963.78 sec

 KS-SCF hessian saved to record  5300.2

 FREQUENCIES * CALCULATION OF HARMONIC VIBRATIONAL SPECTRA FOR KS-SCF


 Permanent Dipole Moment [debye]
   1-  3    0.000000    0.000000    0.000000

 Dipole Moment Norm    0.0000000 [debye]

 Dipole Moment Derivatives [debye/ang]
                   1             2             3             4             5             6             7             8
         1     0.8960091    -0.3494727     0.0000000    -0.8872049     0.3565069     0.0000000    -0.5464489    -0.5249910
         2    -0.0043324    -0.7185776     0.0000000     0.3925368     0.1330015     0.0000000    -0.4786894    -0.2043654
         3     0.0000000    -0.0000000     0.1318345    -0.0000000    -0.0000000    -0.4359899    -0.0000000     0.0000000
                   9            10            11            12            13            14            15            16
         1     0.0000000     0.8960091    -0.3494727     0.0000000    -0.8872049     0.3565069     0.0000000    -0.5464489
         2     0.0000000    -0.0043324    -0.7185776     0.0000000     0.3925368     0.1330015     0.0000000    -0.4786894
         3    -0.3987065    -0.0000000     0.0000000     0.1318345     0.0000000     0.0000000    -0.4359899     0.0000000
                  17            18            19            20            21            22            23            24
         1    -0.5249910     0.0000000     0.9577389     1.6192255     0.0000000     0.9577389     1.6192255     0.0000000
         2    -0.2043654     0.0000000     0.0929476    -0.0216304     0.0000000     0.0929476    -0.0216304     0.0000000
         3    -0.0000000    -0.3987065    -0.0000000    -0.0000000    -0.3782403     0.0000000     0.0000000    -0.3782403
                  25            26            27            28            29            30            31            32
         1     0.1662261     0.0434906     0.0000000     0.1662261     0.0434906     0.0000000     0.1736015    -0.0924251
         2     0.0561910     0.3064476     0.0000000     0.0561910     0.3064476     0.0000000    -0.0592535     0.2867048
         3     0.0000000     0.0000000     0.3798301    -0.0000000    -0.0000000     0.3798301     0.0000000     0.0000000
                  33            34            35            36            37            38            39            40
         1     0.0000000     0.1736015    -0.0924251     0.0000000    -1.2375515    -0.2690862     0.0000000    -1.2375515
         2     0.0000000    -0.0592535     0.2867048     0.0000000     0.2162280    -0.1799519     0.0000000     0.2162280
         3     0.3726484    -0.0000000    -0.0000000     0.3726484    -0.0000000    -0.0000000    -0.9817923     0.0000000
                  41            42            43            44            45            46            47            48
         1    -0.2690862     0.0000000    -0.1474123    -0.3140639     0.0000000    -0.1474123    -0.3140639     0.0000000
         2    -0.1799519     0.0000000     0.0893510     0.0957984     0.0000000     0.0893510     0.0957984     0.0000000
         3     0.0000000    -0.9817923     0.0000000    -0.0000000     0.3852952    -0.0000000     0.0000000     0.3852952
                  49            50            51            52            53            54            55            56
         1     0.5528126     0.2715048     0.0000000     0.5528126     0.2715048     0.0000000     0.0777015    -0.7449828
         2    -0.2082575     0.1287710     0.0000000    -0.2082575     0.1287710     0.0000000    -0.0989639     0.1754640
         3    -0.0000000     0.0000000     0.4522768     0.0000000    -0.0000000     0.4522768     0.0000000     0.0000000
                  57            58            59            60
         1     0.0000000     0.0777015    -0.7449828     0.0000000
         2     0.0000000    -0.0989639     0.1754640     0.0000000
         3     0.4727336    -0.0000000    -0.0000000     0.4727336

 Projecting out rotations and translations

 Force Constants (Second Derivatives of the Energy) in [a.u.]
                             CX1         CY1         CZ1         CX2         CY2     
           CX1           0.7057117
           CY1           0.0038721   0.7252394
           CZ1           0.0000000   0.0000000   0.1578713
           CX2          -0.2088654   0.0529959   0.0000000   0.7585435
           CY2           0.1379330  -0.2647147   0.0000000   0.0558417   0.8217797
           CZ2           0.0000000   0.0000000  -0.0665767   0.0000000   0.0000000
           CX3          -0.0549491   0.0803755   0.0000000  -0.3780519  -0.0887973
           CY3           0.0102232   0.0611510   0.0000000   0.0140760  -0.1540061
           CZ3           0.0000000   0.0000000   0.0070035   0.0000000   0.0000000
           CX4           0.0103864   0.0157590   0.0000000  -0.0159688  -0.0369803
           CY4           0.0157590  -0.0839444   0.0000000  -0.1087508   0.0211268
           CZ4           0.0000000   0.0000000  -0.0089539   0.0000000   0.0000000
           CX5          -0.0159688  -0.1087508   0.0000000  -0.0767247   0.0271399
           CY5          -0.0369803   0.0211268   0.0000000   0.0271399  -0.0082725
           CZ5           0.0000000   0.0000000   0.0069228   0.0000000   0.0000000
           CX6          -0.1549502  -0.0167770   0.0000000   0.0749073  -0.0059422
           CY6          -0.0975693  -0.3191265   0.0000000   0.0531185  -0.0599747
           CZ6           0.0000000   0.0000000  -0.0674537   0.0000000   0.0000000
           CX7          -0.2372799  -0.0268832   0.0000000  -0.0445604   0.0062936
           CY7          -0.0564151  -0.1234663   0.0000000   0.0319318   0.0065997
           CZ7           0.0000000   0.0000000  -0.0633644   0.0000000   0.0000000
           CX8          -0.0060884  -0.0002251   0.0000000   0.0100613  -0.0016496
           CY8           0.0015420  -0.0003057   0.0000000  -0.0008070  -0.0064395
           CZ8           0.0000000   0.0000000  -0.0010014   0.0000000   0.0000000
           HX9           0.0127302  -0.0139892   0.0000000  -0.0015816  -0.0025544
           HY9           0.0222800  -0.0147538   0.0000000  -0.0041162  -0.0036867
           HZ9           0.0000000   0.0000000   0.0027632   0.0000000   0.0000000
           HX10         -0.0040221  -0.0034005   0.0000000  -0.0136462   0.0287325
           HY10         -0.0018070   0.0001372   0.0000000  -0.0112206   0.0089766
           HZ10          0.0000000   0.0000000   0.0088486   0.0000000   0.0000000
           HX11          0.0099818   0.0235273   0.0000000  -0.1066469  -0.1102758
           HY11         -0.0134331  -0.0147137   0.0000000  -0.1101511  -0.3653074
           HZ11          0.0000000   0.0000000   0.0024544   0.0000000   0.0000000
           HX12         -0.0052456   0.0014905   0.0000000  -0.0004926   0.0006027
           HY12          0.0000412   0.0012235   0.0000000   0.0007926   0.0010562
           HZ12          0.0000000   0.0000000   0.0088018   0.0000000   0.0000000
           CX13         -0.0483887   0.0216835   0.0000000   0.0027736  -0.0069727
           CY13          0.0129636   0.0173545   0.0000000  -0.0070875   0.0010044
           CZ13          0.0000000   0.0000000   0.0054716   0.0000000   0.0000000
           CX14          0.0018476   0.0007895   0.0000000  -0.0016392   0.0013982
           CY14         -0.0019621   0.0000537   0.0000000   0.0029763  -0.0006385
           CZ14          0.0000000   0.0000000  -0.0000462   0.0000000   0.0000000
           HX15         -0.0068180  -0.0317185   0.0000000   0.0017043  -0.0019974
           HY15          0.0037927  -0.0026276   0.0000000   0.0024107   0.0013781
           HZ15          0.0000000   0.0000000   0.0023459   0.0000000   0.0000000
           HX16          0.0001785  -0.0000383   0.0000000   0.0003722  -0.0017430
           HY16          0.0000557   0.0002180   0.0000000   0.0001331  -0.0001539
           HZ16          0.0000000   0.0000000   0.0001174   0.0000000   0.0000000
           HX17          0.0001167   0.0001562   0.0000000   0.0000144  -0.0002295
           HY17         -0.0000650   0.0000520   0.0000000  -0.0000220   0.0002031
           HZ17          0.0000000   0.0000000   0.0001512   0.0000000   0.0000000
           HX18         -0.0000447   0.0027664   0.0000000  -0.0003944  -0.0004989
           HY18          0.0012812  -0.0033173   0.0000000   0.0009130   0.0008062
           HZ18          0.0000000   0.0000000   0.0129296   0.0000000   0.0000000
           HX19         -0.0000658   0.0001303   0.0000000   0.0000455  -0.0001888
           HY19         -0.0001075  -0.0001177   0.0000000   0.0000134   0.0003593
           HZ19          0.0000000   0.0000000  -0.0000760   0.0000000   0.0000000
           HX20          0.0017338  -0.0017635   0.0000000   0.0001501  -0.0001118
           HY20         -0.0014044   0.0005316   0.0000000  -0.0001876  -0.0000960
           HZ20          0.0000000   0.0000000  -0.0082089   0.0000000   0.0000000
                             CZ2         CX3         CY3         CZ3         CX4     
           CZ2           0.1411677
           CX3           0.0000000   0.7964689
           CY3           0.0000000  -0.0664916   0.7841154
           CZ3          -0.0624158   0.0000000   0.0000000   0.1412230
           CX4           0.0000000  -0.1549502  -0.0975693   0.0000000   0.7057117
           CY4           0.0000000  -0.0167770  -0.3191265   0.0000000   0.0038721
           CZ4           0.0069228   0.0000000   0.0000000  -0.0674537   0.0000000
           CX5           0.0000000   0.0749073   0.0531185   0.0000000  -0.2088654
           CY5           0.0000000  -0.0059422  -0.0599747   0.0000000   0.1379330
           CZ5          -0.0071353   0.0000000   0.0000000   0.0065590   0.0000000
           CX6           0.0000000  -0.0509400  -0.0423251   0.0000000  -0.0549491
           CY6           0.0000000  -0.0423251  -0.0318247   0.0000000   0.0102232
           CZ6           0.0065590   0.0000000   0.0000000  -0.0063937   0.0000000
           CX7           0.0000000   0.0069258   0.0062711   0.0000000  -0.0060884
           CY7           0.0000000   0.0009448  -0.0049301   0.0000000   0.0015420
           CZ7           0.0040410   0.0000000   0.0000000   0.0074425   0.0000000
           CX8           0.0000000  -0.0252834  -0.0212618   0.0000000  -0.2372799
           CY8           0.0000000  -0.0334939   0.0012463   0.0000000  -0.0564151
           CZ8           0.0068393   0.0000000   0.0000000   0.0027354   0.0000000
           HX9           0.0000000   0.0000217  -0.0009922   0.0000000  -0.0040221
           HY9           0.0000000  -0.0010441   0.0004469   0.0000000  -0.0018070
           HZ9           0.0076914   0.0000000   0.0000000  -0.0009578   0.0000000
           HX10          0.0000000  -0.1985956   0.1668191   0.0000000   0.0127302
           HY10          0.0000000   0.1674278  -0.2744529   0.0000000   0.0222800
           HZ10          0.0037432   0.0000000   0.0000000  -0.0402887   0.0000000
           HX11          0.0000000  -0.0059823  -0.0331282   0.0000000  -0.0052456
           HY11          0.0000000   0.0063071   0.0017497   0.0000000   0.0000412
           HZ11         -0.0398407   0.0000000   0.0000000   0.0033330   0.0000000
           HX12          0.0000000  -0.0036260   0.0024900   0.0000000   0.0099818
           HY12          0.0000000   0.0040509  -0.0015770   0.0000000  -0.0134331
           HZ12         -0.0009064   0.0000000   0.0000000   0.0073814   0.0000000
           CX13          0.0000000  -0.0032631  -0.0009312   0.0000000   0.0018476
           CY13          0.0000000   0.0016035   0.0020058   0.0000000  -0.0019621
           CZ13          0.0014920   0.0000000   0.0000000  -0.0000561   0.0000000
           CX14          0.0000000   0.0039667   0.0066575   0.0000000  -0.0483887
           CY14          0.0000000  -0.0050282  -0.0049957   0.0000000   0.0129636
           CZ14         -0.0005144   0.0000000   0.0000000   0.0002703   0.0000000
           HX15          0.0000000   0.0000842   0.0000755   0.0000000   0.0001785
           HY15          0.0000000  -0.0000035  -0.0001032   0.0000000   0.0000557
           HZ15         -0.0010065   0.0000000   0.0000000  -0.0000777   0.0000000
           HX16          0.0000000  -0.0052442   0.0018721   0.0000000  -0.0068180
           HY16          0.0000000   0.0000532   0.0006603   0.0000000   0.0037927
           HZ16          0.0000626   0.0000000   0.0000000   0.0024993   0.0000000
           HX17          0.0000000   0.0004724   0.0002165   0.0000000  -0.0000447
           HY17          0.0000000  -0.0001332  -0.0005308   0.0000000   0.0012812
           HZ17         -0.0003342   0.0000000   0.0000000  -0.0004336   0.0000000
           HX18          0.0000000  -0.0001983   0.0004229   0.0000000   0.0001167
           HY18          0.0000000   0.0000592  -0.0002613   0.0000000  -0.0000650
           HZ18          0.0000294   0.0000000   0.0000000  -0.0009043   0.0000000
           HX19          0.0000000  -0.0019262   0.0005021   0.0000000   0.0017338
           HY19          0.0000000  -0.0008016   0.0006025   0.0000000  -0.0014044
           HZ19          0.0001817   0.0000000   0.0000000   0.0003013   0.0000000
           HX20          0.0000000   0.0001634  -0.0000451   0.0000000  -0.0000658
           HY20          0.0000000   0.0000158  -0.0001950   0.0000000  -0.0001075
           HZ20         -0.0000001   0.0000000   0.0000000   0.0002326   0.0000000
                             CY4         CZ4         CX5         CY5         CZ5     
           CY4           0.7252394
           CZ4           0.0000000   0.1578713
           CX5           0.0529959   0.0000000   0.7585435
           CY5          -0.2647147   0.0000000   0.0558417   0.8217797
           CZ5           0.0000000  -0.0665767   0.0000000   0.0000000   0.1411677
           CX6           0.0803755   0.0000000  -0.3780519  -0.0887973   0.0000000
           CY6           0.0611510   0.0000000   0.0140760  -0.1540061   0.0000000
           CZ6           0.0000000   0.0070035   0.0000000   0.0000000  -0.0624158
           CX7          -0.0002251   0.0000000   0.0100613  -0.0016496   0.0000000
           CY7          -0.0003057   0.0000000  -0.0008070  -0.0064395   0.0000000
           CZ7           0.0000000  -0.0010014   0.0000000   0.0000000   0.0068393
           CX8          -0.0268832   0.0000000  -0.0445604   0.0062936   0.0000000
           CY8          -0.1234663   0.0000000   0.0319318   0.0065997   0.0000000
           CZ8           0.0000000  -0.0633644   0.0000000   0.0000000   0.0040410
           HX9          -0.0034005   0.0000000  -0.0136462   0.0287325   0.0000000
           HY9           0.0001372   0.0000000  -0.0112206   0.0089766   0.0000000
           HZ9           0.0000000   0.0088486   0.0000000   0.0000000   0.0037432
           HX10         -0.0139892   0.0000000  -0.0015816  -0.0025544   0.0000000
           HY10         -0.0147538   0.0000000  -0.0041162  -0.0036867   0.0000000
           HZ10          0.0000000   0.0027632   0.0000000   0.0000000   0.0076914
           HX11          0.0014905   0.0000000  -0.0004926   0.0006027   0.0000000
           HY11          0.0012235   0.0000000   0.0007926   0.0010562   0.0000000
           HZ11          0.0000000   0.0088018   0.0000000   0.0000000  -0.0009064
           HX12          0.0235273   0.0000000  -0.1066469  -0.1102758   0.0000000
           HY12         -0.0147137   0.0000000  -0.1101511  -0.3653074   0.0000000
           HZ12          0.0000000   0.0024544   0.0000000   0.0000000  -0.0398407
           CX13          0.0007895   0.0000000  -0.0016392   0.0013982   0.0000000
           CY13          0.0000537   0.0000000   0.0029763  -0.0006385   0.0000000
           CZ13          0.0000000  -0.0000462   0.0000000   0.0000000  -0.0005144
           CX14          0.0216835   0.0000000   0.0027736  -0.0069727   0.0000000
           CY14          0.0173545   0.0000000  -0.0070875   0.0010044   0.0000000
           CZ14          0.0000000   0.0054716   0.0000000   0.0000000   0.0014920
           HX15         -0.0000383   0.0000000   0.0003722  -0.0017430   0.0000000
           HY15          0.0002180   0.0000000   0.0001331  -0.0001539   0.0000000
           HZ15          0.0000000   0.0001174   0.0000000   0.0000000   0.0000626
           HX16         -0.0317185   0.0000000   0.0017043  -0.0019974   0.0000000
           HY16         -0.0026276   0.0000000   0.0024107   0.0013781   0.0000000
           HZ16          0.0000000   0.0023459   0.0000000   0.0000000  -0.0010065
           HX17          0.0027664   0.0000000  -0.0003944  -0.0004989   0.0000000
           HY17         -0.0033173   0.0000000   0.0009130   0.0008062   0.0000000
           HZ17          0.0000000   0.0129296   0.0000000   0.0000000   0.0000294
           HX18          0.0001562   0.0000000   0.0000144  -0.0002295   0.0000000
           HY18          0.0000520   0.0000000  -0.0000220   0.0002031   0.0000000
           HZ18          0.0000000   0.0001512   0.0000000   0.0000000  -0.0003342
           HX19         -0.0017635   0.0000000   0.0001501  -0.0001118   0.0000000
           HY19          0.0005316   0.0000000  -0.0001876  -0.0000960   0.0000000
           HZ19          0.0000000  -0.0082089   0.0000000   0.0000000  -0.0000001
           HX20          0.0001303   0.0000000   0.0000455  -0.0001888   0.0000000
           HY20         -0.0001177   0.0000000   0.0000134   0.0003593   0.0000000
           HZ20          0.0000000  -0.0000760   0.0000000   0.0000000   0.0001817
                             CX6         CY6         CZ6         CX7         CY7     
           CX6           0.7964689
           CY6          -0.0664916   0.7841154
           CZ6           0.0000000   0.0000000   0.1412230
           CX7          -0.0252834  -0.0212618   0.0000000   0.7752943
           CY7          -0.0334939   0.0012463   0.0000000  -0.1431034   0.8793069
           CZ7           0.0000000   0.0000000   0.0027354   0.0000000   0.0000000
           CX8           0.0069258   0.0062711   0.0000000   0.0031992  -0.0006643
           CY8           0.0009448  -0.0049301   0.0000000  -0.0006643  -0.0003649
           CZ8           0.0000000   0.0000000   0.0074425   0.0000000   0.0000000
           HX9          -0.1985956   0.1668191   0.0000000  -0.0000745   0.0012846
           HY9           0.1674278  -0.2744529   0.0000000   0.0016923   0.0013412
           HZ9           0.0000000   0.0000000  -0.0402887   0.0000000   0.0000000
           HX10          0.0000217  -0.0009922   0.0000000  -0.0003001   0.0012838
           HY10         -0.0010441   0.0004469   0.0000000  -0.0002137   0.0004284
           HZ10          0.0000000   0.0000000  -0.0009578   0.0000000   0.0000000
           HX11         -0.0036260   0.0024900   0.0000000   0.0013237   0.0020118
           HY11          0.0040509  -0.0015770   0.0000000  -0.0022600   0.0017156
           HZ11          0.0000000   0.0000000   0.0073814   0.0000000   0.0000000
           HX12         -0.0059823  -0.0331282   0.0000000   0.0001955  -0.0015516
           HY12          0.0063071   0.0017497   0.0000000   0.0000885   0.0000847
           HZ12          0.0000000   0.0000000   0.0033330   0.0000000   0.0000000
           CX13          0.0039667   0.0066575   0.0000000  -0.3919840   0.2546774
           CY13         -0.0050282  -0.0049957   0.0000000   0.2316512  -0.3684294
           CZ13          0.0000000   0.0000000   0.0002703   0.0000000   0.0000000
           CX14         -0.0032631  -0.0009312   0.0000000  -0.0009405   0.0002130
           CY14          0.0016035   0.0020058   0.0000000   0.0015014  -0.0000623
           CZ14          0.0000000   0.0000000  -0.0000561   0.0000000   0.0000000
           HX15         -0.0052442   0.0018721   0.0000000  -0.0858231  -0.0748857
           HY15          0.0000532   0.0006603   0.0000000  -0.0720601  -0.3834974
           HZ15          0.0000000   0.0000000   0.0024993   0.0000000   0.0000000
           HX16          0.0000842   0.0000755   0.0000000   0.0000641  -0.0000944
           HY16         -0.0000035  -0.0001032   0.0000000   0.0000148   0.0001272
           HZ16          0.0000000   0.0000000  -0.0000777   0.0000000   0.0000000
           HX17         -0.0001983   0.0004229   0.0000000  -0.0000531  -0.0001030
           HY17          0.0000592  -0.0002613   0.0000000  -0.0000172  -0.0000826
           HZ17          0.0000000   0.0000000  -0.0009043   0.0000000   0.0000000
           HX18          0.0004724   0.0002165   0.0000000  -0.0158983  -0.0124996
           HY18         -0.0001332  -0.0005308   0.0000000   0.0286626   0.0099889
           HZ18          0.0000000   0.0000000  -0.0004336   0.0000000   0.0000000
           HX19          0.0001634  -0.0000451   0.0000000  -0.0000288   0.0002493
           HY19          0.0000158  -0.0001950   0.0000000   0.0001200   0.0001060
           HZ19          0.0000000   0.0000000   0.0002326   0.0000000   0.0000000
           HX20         -0.0019262   0.0005021   0.0000000   0.0112504   0.0294796
           HY20         -0.0008016   0.0006025   0.0000000  -0.0079573  -0.0133668
           HZ20          0.0000000   0.0000000   0.0003013   0.0000000   0.0000000
                             CZ7         CX8         CY8         CZ8         HX9     
           CZ7           0.1385079
           CX8           0.0000000   0.7752943
           CY8           0.0000000  -0.1431034   0.8793069
           CZ8          -0.0010714   0.0000000   0.0000000   0.1385079
           HX9           0.0000000  -0.0003001   0.0012838   0.0000000   0.2053649
           HY9           0.0000000  -0.0002137   0.0004284   0.0000000  -0.1742617
           HZ9          -0.0039141   0.0000000   0.0000000   0.0000542   0.0000000
           HX10          0.0000000  -0.0000745   0.0012846   0.0000000  -0.0000261
           HY10          0.0000000   0.0016923   0.0013412   0.0000000   0.0002305
           HZ10          0.0000542   0.0000000   0.0000000  -0.0039141   0.0000000
           HX11          0.0000000   0.0001955  -0.0015516   0.0000000   0.0006090
           HY11          0.0000000   0.0000885   0.0000847   0.0000000  -0.0006774
           HZ11         -0.0038639   0.0000000   0.0000000   0.0001545   0.0000000
           HX12          0.0000000   0.0013237   0.0020118   0.0000000   0.0019032
           HY12          0.0000000  -0.0022600   0.0017156   0.0000000   0.0001506
           HZ12          0.0001545   0.0000000   0.0000000  -0.0038639   0.0000000
           CX13          0.0000000  -0.0009405   0.0002130   0.0000000  -0.0011433
           CY13          0.0000000   0.0015014  -0.0000623   0.0000000  -0.0018377
           CZ13         -0.0525100   0.0000000   0.0000000   0.0000820   0.0000000
           CX14          0.0000000  -0.3919840   0.2546774   0.0000000  -0.0003795
           CY14          0.0000000   0.2316512  -0.3684294   0.0000000  -0.0004379
           CZ14          0.0000820   0.0000000   0.0000000  -0.0525100   0.0000000
           HX15          0.0000000   0.0000641  -0.0000944   0.0000000   0.0000135
           HY15          0.0000000   0.0000148   0.0001272   0.0000000   0.0000498
           HZ15         -0.0445993   0.0000000   0.0000000   0.0000282   0.0000000
           HX16          0.0000000  -0.0858231  -0.0748857   0.0000000  -0.0000104
           HY16          0.0000000  -0.0720601  -0.3834974   0.0000000   0.0000238
           HZ16          0.0000282   0.0000000   0.0000000  -0.0445993   0.0000000
           HX17          0.0000000  -0.0158983  -0.0124996   0.0000000  -0.0000610
           HY17          0.0000000   0.0286626   0.0099889   0.0000000   0.0000991
           HZ17         -0.0000066   0.0000000   0.0000000   0.0056465   0.0000000
           HX18          0.0000000  -0.0000531  -0.0001030   0.0000000   0.0001214
           HY18          0.0000000  -0.0000172  -0.0000826   0.0000000  -0.0000983
           HZ18          0.0056465   0.0000000   0.0000000  -0.0000066   0.0000000
           HX19          0.0000000   0.0112504   0.0294796   0.0000000   0.0000111
           HY19          0.0000000  -0.0079573  -0.0133668   0.0000000  -0.0000220
           HZ19          0.0000701   0.0000000   0.0000000   0.0047296   0.0000000
           HX20          0.0000000  -0.0000288   0.0002493   0.0000000  -0.0009345
           HY20          0.0000000   0.0001200   0.0001060   0.0000000  -0.0004027
           HZ20          0.0047296   0.0000000   0.0000000   0.0000701   0.0000000
                             HY9         HZ9         HX10        HY10        HZ10    
           HY9           0.2805241
           HZ9           0.0000000   0.0276535
           HX10          0.0002305   0.0000000   0.2053649
           HY10         -0.0000590   0.0000000  -0.1742617   0.2805241
           HZ10          0.0000000  -0.0011864   0.0000000   0.0000000   0.0276535
           HX11          0.0011244   0.0000000   0.0019032  -0.0000057   0.0000000
           HY11         -0.0008015   0.0000000   0.0001506   0.0011678   0.0000000
           HZ11          0.0000000   0.0001456   0.0000000   0.0000000  -0.0051118
           HX12         -0.0000057   0.0000000   0.0006090   0.0011244   0.0000000
           HY12          0.0011678   0.0000000  -0.0006774  -0.0008015   0.0000000
           HZ12          0.0000000  -0.0051118   0.0000000   0.0000000   0.0001456
           CX13          0.0003649   0.0000000  -0.0003795  -0.0001407   0.0000000
           CY13          0.0002345   0.0000000  -0.0004379  -0.0001238   0.0000000
           CZ13          0.0000000   0.0003270   0.0000000   0.0000000  -0.0001129
           CX14         -0.0001407   0.0000000  -0.0011433   0.0003649   0.0000000
           CY14         -0.0001238   0.0000000  -0.0018377   0.0002345   0.0000000
           CZ14          0.0000000  -0.0001129   0.0000000   0.0000000   0.0003270
           HX15          0.0000179   0.0000000  -0.0000104   0.0000061   0.0000000
           HY15          0.0001171   0.0000000   0.0000238   0.0000075   0.0000000
           HZ15          0.0000000  -0.0000614   0.0000000   0.0000000   0.0000129
           HX16          0.0000061   0.0000000   0.0000135   0.0000179   0.0000000
           HY16          0.0000075   0.0000000   0.0000498   0.0001171   0.0000000
           HZ16          0.0000000   0.0000129   0.0000000   0.0000000  -0.0000614
           HX17         -0.0000361   0.0000000   0.0001214   0.0000294   0.0000000
           HY17          0.0000306   0.0000000  -0.0000983   0.0000531   0.0000000
           HZ17          0.0000000   0.0000081   0.0000000   0.0000000   0.0001391
           HX18          0.0000294   0.0000000  -0.0000610  -0.0000361   0.0000000
           HY18          0.0000531   0.0000000   0.0000991   0.0000306   0.0000000
           HZ18          0.0000000   0.0001391   0.0000000   0.0000000   0.0000081
           HX19          0.0000164   0.0000000  -0.0009345  -0.0003439   0.0000000
           HY19         -0.0000101   0.0000000  -0.0004027   0.0004227   0.0000000
           HZ19          0.0000000  -0.0000127   0.0000000   0.0000000   0.0002592
           HX20         -0.0003439   0.0000000   0.0000111   0.0000164   0.0000000
           HY20          0.0004227   0.0000000  -0.0000220  -0.0000101   0.0000000
           HZ20          0.0000000   0.0002592   0.0000000   0.0000000  -0.0000127
                             HX11        HY11        HZ11        HX12        HY12    
           HX11          0.1080843
           HY11          0.1146453   0.3753594
           HZ11          0.0000000   0.0000000   0.0283645
           HX12          0.0001199  -0.0001734   0.0000000   0.1080843
           HY12         -0.0001734  -0.0001950   0.0000000   0.1146453   0.3753594
           HZ12          0.0000000   0.0000000  -0.0010686   0.0000000   0.0000000
           CX13         -0.0000775  -0.0000991   0.0000000   0.0000725  -0.0000199
           CY13         -0.0002797   0.0001765   0.0000000  -0.0000488  -0.0000008
           CZ13          0.0000000   0.0000000   0.0001199   0.0000000   0.0000000
           CX14          0.0000725  -0.0000199   0.0000000  -0.0000775  -0.0000991
           CY14         -0.0000488  -0.0000008   0.0000000  -0.0002797   0.0001765
           CZ14          0.0000000   0.0000000   0.0000306   0.0000000   0.0000000
           HX15          0.0002246   0.0007259   0.0000000  -0.0004530   0.0000093
           HY15         -0.0003697   0.0000207   0.0000000  -0.0000557   0.0000335
           HZ15          0.0000000   0.0000000  -0.0000352   0.0000000   0.0000000
           HX16         -0.0004530   0.0000093   0.0000000   0.0002246   0.0007259
           HY16         -0.0000557   0.0000335   0.0000000  -0.0003697   0.0000207
           HZ16          0.0000000   0.0000000  -0.0002168   0.0000000   0.0000000
           HX17         -0.0000165   0.0000109   0.0000000  -0.0000233   0.0000913
           HY17          0.0000465   0.0000065   0.0000000   0.0000017   0.0000373
           HZ17          0.0000000   0.0000000   0.0000058   0.0000000   0.0000000
           HX18         -0.0000233   0.0000913   0.0000000  -0.0000165   0.0000109
           HY18          0.0000017   0.0000373   0.0000000   0.0000465   0.0000065
           HZ18          0.0000000   0.0000000   0.0003252   0.0000000   0.0000000
           HX19         -0.0000546  -0.0000146   0.0000000   0.0001039  -0.0000851
           HY19         -0.0000212   0.0000008   0.0000000  -0.0000303  -0.0000369
           HZ19          0.0000000   0.0000000   0.0000202   0.0000000   0.0000000
           HX20          0.0001039  -0.0000851   0.0000000  -0.0000546  -0.0000146
           HY20         -0.0000303  -0.0000369   0.0000000  -0.0000212   0.0000008
           HZ20          0.0000000   0.0000000  -0.0000937   0.0000000   0.0000000
                             HZ12        CX13        CY13        CZ13        CX14    
           HZ12          0.0283645
           CX13          0.0000000   0.8950561
           CY13          0.0000000  -0.1078196   0.8705854
           CZ13          0.0000306   0.0000000   0.0000000   0.1136932
           CX14          0.0000000   0.0001451  -0.0008049   0.0000000   0.8950561
           CY14          0.0000000  -0.0008049   0.0004270   0.0000000  -0.1078196
           CZ14          0.0001199   0.0000000   0.0000000   0.0000543   0.0000000
           HX15          0.0000000   0.0081760   0.0324796   0.0000000  -0.0000856
           HY15          0.0000000  -0.0095086  -0.0155146   0.0000000  -0.0000247
           HZ15         -0.0002168   0.0000000   0.0000000   0.0056977   0.0000000
           HX16          0.0000000  -0.0000856  -0.0003555   0.0000000   0.0081760
           HY16          0.0000000  -0.0000247   0.0001204   0.0000000  -0.0095086
           HZ16         -0.0000352   0.0000000   0.0000000  -0.0000059   0.0000000
           HX17          0.0000000   0.0000470   0.0000382   0.0000000  -0.3800408
           HY17          0.0000000   0.0000119   0.0000352   0.0000000  -0.1027265
           HZ17          0.0003252   0.0000000   0.0000000  -0.0000169   0.0000000
           HX18          0.0000000  -0.3800408  -0.0997054   0.0000000   0.0000470
           HY18          0.0000000  -0.1027265  -0.1008592   0.0000000   0.0000119
           HZ18          0.0000058   0.0000000   0.0000000  -0.0353898   0.0000000
           HX19          0.0000000   0.0000348   0.0003827   0.0000000  -0.0841770
           HY19          0.0000000  -0.0001363  -0.0001558   0.0000000  -0.0566117
           HZ19         -0.0000937   0.0000000   0.0000000  -0.0000196   0.0000000
           HX20          0.0000000  -0.0841770  -0.0582290   0.0000000   0.0000348
           HY20          0.0000000  -0.0566117  -0.4012176   0.0000000  -0.0001363
           HZ20          0.0000202   0.0000000   0.0000000  -0.0385667   0.0000000
                             CY14        CZ14        HX15        HY15        HZ15    
           CY14          0.8705854
           CZ14          0.0000000   0.1136932
           HX15         -0.0003555   0.0000000   0.0896397
           HY15          0.0001204   0.0000000   0.0735315   0.3978568
           HZ15          0.0000000  -0.0000059   0.0000000   0.0000000   0.0304608
           HX16          0.0324796   0.0000000   0.0000227  -0.0000245   0.0000000
           HY16         -0.0155146   0.0000000  -0.0000245   0.0000086   0.0000000
           HZ16          0.0000000   0.0056977   0.0000000   0.0000000   0.0000147
           HX17         -0.0997054   0.0000000   0.0000097   0.0000038   0.0000000
           HY17         -0.1008592   0.0000000  -0.0000145   0.0000171   0.0000000
           HZ17          0.0000000  -0.0353898   0.0000000   0.0000000   0.0000048
           HX18          0.0000382   0.0000000   0.0016561  -0.0001278   0.0000000
           HY18          0.0000352   0.0000000  -0.0000513   0.0018931   0.0000000
           HZ18          0.0000000  -0.0000169   0.0000000   0.0000000  -0.0092941
           HX19         -0.0582290   0.0000000  -0.0000277   0.0000322   0.0000000
           HY19         -0.4012176   0.0000000  -0.0000464  -0.0000050   0.0000000
           HZ19          0.0000000  -0.0385667   0.0000000   0.0000000   0.0000018
           HX20          0.0003827   0.0000000  -0.0036836   0.0020733   0.0000000
           HY20         -0.0001558   0.0000000   0.0022518  -0.0005567   0.0000000
           HZ20          0.0000000  -0.0000196   0.0000000   0.0000000   0.0140510
                             HX16        HY16        HZ16        HX17        HY17    
           HX16          0.0896397
           HY16          0.0735315   0.3978568
           HZ16          0.0000000   0.0000000   0.0304608
           HX17          0.0016561  -0.0001278   0.0000000   0.3924127
           HY17         -0.0000513   0.0018931   0.0000000   0.1019477   0.0932540
           HZ17          0.0000000   0.0000000  -0.0092941   0.0000000   0.0000000
           HX18          0.0000097   0.0000038   0.0000000  -0.0000248  -0.0000164
           HY18         -0.0000145   0.0000171   0.0000000  -0.0000164  -0.0000151
           HZ18          0.0000000   0.0000000   0.0000048   0.0000000   0.0000000
           HX19         -0.0036836   0.0020733   0.0000000   0.0019009  -0.0299167
           HY19          0.0022518  -0.0005567   0.0000000   0.0075000  -0.0013307
           HZ19          0.0000000   0.0000000   0.0140510   0.0000000   0.0000000
           HX20         -0.0000277   0.0000322   0.0000000   0.0000040   0.0000382
           HY20         -0.0000464  -0.0000050   0.0000000   0.0000334   0.0000199
           HZ20          0.0000000   0.0000000   0.0000018   0.0000000   0.0000000
                             HZ17        HX18        HY18        HZ18        HX19    
           HZ17          0.0248659
           HX18          0.0000000   0.3924127
           HY18          0.0000000   0.1019477   0.0932540
           HZ18          0.0000267   0.0000000   0.0000000   0.0248659
           HX19          0.0000000   0.0000040   0.0000382   0.0000000   0.0754769
           HY19          0.0000000   0.0000334   0.0000199   0.0000000   0.0577686
           HZ19          0.0022693   0.0000000   0.0000000  -0.0000219   0.0000000
           HX20          0.0000000   0.0019009  -0.0299167   0.0000000   0.0000233
           HY20          0.0000000   0.0075000  -0.0013307   0.0000000   0.0000261
           HZ20         -0.0000219   0.0000000   0.0000000   0.0022693   0.0000000
                             HY19        HZ19        HX20        HY20        HZ20    
           HY19          0.4151197
           HZ19          0.0000000   0.0248729
           HX20          0.0000261   0.0000000   0.0754769
           HY20         -0.0000743   0.0000000   0.0577686   0.4151197
           HZ20          0.0000000   0.0000098   0.0000000   0.0000000   0.0248729


 Atomic Masses
   1- 10   12.011000   12.011000   12.011000   12.011000   12.011000   12.011000   12.011000   12.011000    1.007940    1.007940
  11- 20    1.007940    1.007940   12.011000   12.011000    1.007940    1.007940    1.007940    1.007940    1.007940    1.007940

 Mass weighted Second Derivative Matrix
                             CX1         CY1         CZ1         CX2         CY2     
           CX1           0.0587555
           CY1           0.0003224   0.0603813
           CZ1           0.0000000   0.0000000   0.0131439
           CX2          -0.0173895   0.0044123   0.0000000   0.0631541
           CY2           0.0114839  -0.0220394   0.0000000   0.0046492   0.0684189
           CZ2           0.0000000   0.0000000  -0.0055430   0.0000000   0.0000000
           CX3          -0.0045749   0.0066918   0.0000000  -0.0314755  -0.0073930
           CY3           0.0008512   0.0050912   0.0000000   0.0011719  -0.0128221
           CZ3           0.0000000   0.0000000   0.0005831   0.0000000   0.0000000
           CX4           0.0008647   0.0013120   0.0000000  -0.0013295  -0.0030789
           CY4           0.0013120  -0.0069890   0.0000000  -0.0090543   0.0017590
           CZ4           0.0000000   0.0000000  -0.0007455   0.0000000   0.0000000
           CX5          -0.0013295  -0.0090543   0.0000000  -0.0063879   0.0022596
           CY5          -0.0030789   0.0017590   0.0000000   0.0022596  -0.0006887
           CZ5           0.0000000   0.0000000   0.0005764   0.0000000   0.0000000
           CX6          -0.0129007  -0.0013968   0.0000000   0.0062366  -0.0004947
           CY6          -0.0081233  -0.0265695   0.0000000   0.0044225  -0.0049933
           CZ6           0.0000000   0.0000000  -0.0056160   0.0000000   0.0000000
           CX7          -0.0197552  -0.0022382   0.0000000  -0.0037100   0.0005240
           CY7          -0.0046970  -0.0102794   0.0000000   0.0026585   0.0005495
           CZ7           0.0000000   0.0000000  -0.0052755   0.0000000   0.0000000
           CX8          -0.0005069  -0.0000187   0.0000000   0.0008377  -0.0001373
           CY8           0.0001284  -0.0000254   0.0000000  -0.0000672  -0.0005361
           CZ8           0.0000000   0.0000000  -0.0000834   0.0000000   0.0000000
           HX9           0.0036587  -0.0040205   0.0000000  -0.0004546  -0.0007341
           HY9           0.0064034  -0.0042403   0.0000000  -0.0011830  -0.0010596
           HZ9           0.0000000   0.0000000   0.0007941   0.0000000   0.0000000
           HX10         -0.0011560  -0.0009773   0.0000000  -0.0039220   0.0082578
           HY10         -0.0005194   0.0000394   0.0000000  -0.0032248   0.0025799
           HZ10          0.0000000   0.0000000   0.0025431   0.0000000   0.0000000
           HX11          0.0028688   0.0067618   0.0000000  -0.0306508  -0.0316937
           HY11         -0.0038607  -0.0042288   0.0000000  -0.0316579  -0.1049909
           HZ11          0.0000000   0.0000000   0.0007054   0.0000000   0.0000000
           HX12         -0.0015076   0.0004284   0.0000000  -0.0001416   0.0001732
           HY12          0.0000118   0.0003516   0.0000000   0.0002278   0.0003036
           HZ12          0.0000000   0.0000000   0.0025297   0.0000000   0.0000000
           CX13         -0.0040287   0.0018053   0.0000000   0.0002309  -0.0005805
           CY13          0.0010793   0.0014449   0.0000000  -0.0005901   0.0000836
           CZ13          0.0000000   0.0000000   0.0004555   0.0000000   0.0000000
           CX14          0.0001538   0.0000657   0.0000000  -0.0001365   0.0001164
           CY14         -0.0001634   0.0000045   0.0000000   0.0002478  -0.0000532
           CZ14          0.0000000   0.0000000  -0.0000038   0.0000000   0.0000000
           HX15         -0.0019595  -0.0091160   0.0000000   0.0004898  -0.0005741
           HY15          0.0010901  -0.0007552   0.0000000   0.0006928   0.0003961
           HZ15          0.0000000   0.0000000   0.0006742   0.0000000   0.0000000
           HX16          0.0000513  -0.0000110   0.0000000   0.0001070  -0.0005009
           HY16          0.0000160   0.0000626   0.0000000   0.0000383  -0.0000442
           HZ16          0.0000000   0.0000000   0.0000337   0.0000000   0.0000000
           HX17          0.0000336   0.0000449   0.0000000   0.0000041  -0.0000660
           HY17         -0.0000187   0.0000149   0.0000000  -0.0000063   0.0000584
           HZ17          0.0000000   0.0000000   0.0000434   0.0000000   0.0000000
           HX18         -0.0000129   0.0007951   0.0000000  -0.0001133  -0.0001434
           HY18          0.0003682  -0.0009534   0.0000000   0.0002624   0.0002317
           HZ18          0.0000000   0.0000000   0.0037160   0.0000000   0.0000000
           HX19         -0.0000189   0.0000375   0.0000000   0.0000131  -0.0000543
           HY19         -0.0000309  -0.0000338   0.0000000   0.0000039   0.0001033
           HZ19          0.0000000   0.0000000  -0.0000218   0.0000000   0.0000000
           HX20          0.0004983  -0.0005068   0.0000000   0.0000431  -0.0000321
           HY20         -0.0004036   0.0001528   0.0000000  -0.0000539  -0.0000276
           HZ20          0.0000000   0.0000000  -0.0023593   0.0000000   0.0000000
                             CZ2         CX3         CY3         CZ3         CX4     
           CZ2           0.0117532
           CX3           0.0000000   0.0663116
           CY3           0.0000000  -0.0055359   0.0652831
           CZ3          -0.0051966   0.0000000   0.0000000   0.0117578
           CX4           0.0000000  -0.0129007  -0.0081233   0.0000000   0.0587555
           CY4           0.0000000  -0.0013968  -0.0265695   0.0000000   0.0003224
           CZ4           0.0005764   0.0000000   0.0000000  -0.0056160   0.0000000
           CX5           0.0000000   0.0062366   0.0044225   0.0000000  -0.0173895
           CY5           0.0000000  -0.0004947  -0.0049933   0.0000000   0.0114839
           CZ5          -0.0005941   0.0000000   0.0000000   0.0005461   0.0000000
           CX6           0.0000000  -0.0042411  -0.0035239   0.0000000  -0.0045749
           CY6           0.0000000  -0.0035239  -0.0026496   0.0000000   0.0008512
           CZ6           0.0005461   0.0000000   0.0000000  -0.0005323   0.0000000
           CX7           0.0000000   0.0005766   0.0005221   0.0000000  -0.0005069
           CY7           0.0000000   0.0000787  -0.0004105   0.0000000   0.0001284
           CZ7           0.0003364   0.0000000   0.0000000   0.0006196   0.0000000
           CX8           0.0000000  -0.0021050  -0.0017702   0.0000000  -0.0197552
           CY8           0.0000000  -0.0027886   0.0001038   0.0000000  -0.0046970
           CZ8           0.0005694   0.0000000   0.0000000   0.0002277   0.0000000
           HX9           0.0000000   0.0000062  -0.0002852   0.0000000  -0.0011560
           HY9           0.0000000  -0.0003001   0.0001284   0.0000000  -0.0005194
           HZ9           0.0022105   0.0000000   0.0000000  -0.0002753   0.0000000
           HX10          0.0000000  -0.0570772   0.0479445   0.0000000   0.0036587
           HY10          0.0000000   0.0481195  -0.0788789   0.0000000   0.0064034
           HZ10          0.0010758   0.0000000   0.0000000  -0.0115791   0.0000000
           HX11          0.0000000  -0.0017193  -0.0095212   0.0000000  -0.0015076
           HY11          0.0000000   0.0018127   0.0005029   0.0000000   0.0000118
           HZ11         -0.0114504   0.0000000   0.0000000   0.0009579   0.0000000
           HX12          0.0000000  -0.0010421   0.0007156   0.0000000   0.0028688
           HY12          0.0000000   0.0011643  -0.0004532   0.0000000  -0.0038607
           HZ12         -0.0002605   0.0000000   0.0000000   0.0021215   0.0000000
           CX13          0.0000000  -0.0002717  -0.0000775   0.0000000   0.0001538
           CY13          0.0000000   0.0001335   0.0001670   0.0000000  -0.0001634
           CZ13          0.0001242   0.0000000   0.0000000  -0.0000047   0.0000000
           CX14          0.0000000   0.0003303   0.0005543   0.0000000  -0.0040287
           CY14          0.0000000  -0.0004186  -0.0004159   0.0000000   0.0010793
           CZ14         -0.0000428   0.0000000   0.0000000   0.0000225   0.0000000
           HX15          0.0000000   0.0000242   0.0000217   0.0000000   0.0000513
           HY15          0.0000000  -0.0000010  -0.0000297   0.0000000   0.0000160
           HZ15         -0.0002893   0.0000000   0.0000000  -0.0000223   0.0000000
           HX16          0.0000000  -0.0015072   0.0005381   0.0000000  -0.0019595
           HY16          0.0000000   0.0000153   0.0001898   0.0000000   0.0010901
           HZ16          0.0000180   0.0000000   0.0000000   0.0007183   0.0000000
           HX17          0.0000000   0.0001358   0.0000622   0.0000000  -0.0000129
           HY17          0.0000000  -0.0000383  -0.0001526   0.0000000   0.0003682
           HZ17         -0.0000961   0.0000000   0.0000000  -0.0001246   0.0000000
           HX18          0.0000000  -0.0000570   0.0001215   0.0000000   0.0000336
           HY18          0.0000000   0.0000170  -0.0000751   0.0000000  -0.0000187
           HZ18          0.0000085   0.0000000   0.0000000  -0.0002599   0.0000000
           HX19          0.0000000  -0.0005536   0.0001443   0.0000000   0.0004983
           HY19          0.0000000  -0.0002304   0.0001732   0.0000000  -0.0004036
           HZ19          0.0000522   0.0000000   0.0000000   0.0000866   0.0000000
           HX20          0.0000000   0.0000470  -0.0000130   0.0000000  -0.0000189
           HY20          0.0000000   0.0000045  -0.0000560   0.0000000  -0.0000309
           HZ20         -0.0000000   0.0000000   0.0000000   0.0000668   0.0000000
                             CY4         CZ4         CX5         CY5         CZ5     
           CY4           0.0603813
           CZ4           0.0000000   0.0131439
           CX5           0.0044123   0.0000000   0.0631541
           CY5          -0.0220394   0.0000000   0.0046492   0.0684189
           CZ5           0.0000000  -0.0055430   0.0000000   0.0000000   0.0117532
           CX6           0.0066918   0.0000000  -0.0314755  -0.0073930   0.0000000
           CY6           0.0050912   0.0000000   0.0011719  -0.0128221   0.0000000
           CZ6           0.0000000   0.0005831   0.0000000   0.0000000  -0.0051966
           CX7          -0.0000187   0.0000000   0.0008377  -0.0001373   0.0000000
           CY7          -0.0000254   0.0000000  -0.0000672  -0.0005361   0.0000000
           CZ7           0.0000000  -0.0000834   0.0000000   0.0000000   0.0005694
           CX8          -0.0022382   0.0000000  -0.0037100   0.0005240   0.0000000
           CY8          -0.0102794   0.0000000   0.0026585   0.0005495   0.0000000
           CZ8           0.0000000  -0.0052755   0.0000000   0.0000000   0.0003364
           HX9          -0.0009773   0.0000000  -0.0039220   0.0082578   0.0000000
           HY9           0.0000394   0.0000000  -0.0032248   0.0025799   0.0000000
           HZ9           0.0000000   0.0025431   0.0000000   0.0000000   0.0010758
           HX10         -0.0040205   0.0000000  -0.0004546  -0.0007341   0.0000000
           HY10         -0.0042403   0.0000000  -0.0011830  -0.0010596   0.0000000
           HZ10          0.0000000   0.0007941   0.0000000   0.0000000   0.0022105
           HX11          0.0004284   0.0000000  -0.0001416   0.0001732   0.0000000
           HY11          0.0003516   0.0000000   0.0002278   0.0003036   0.0000000
           HZ11          0.0000000   0.0025297   0.0000000   0.0000000  -0.0002605
           HX12          0.0067618   0.0000000  -0.0306508  -0.0316937   0.0000000
           HY12         -0.0042288   0.0000000  -0.0316579  -0.1049909   0.0000000
           HZ12          0.0000000   0.0007054   0.0000000   0.0000000  -0.0114504
           CX13          0.0000657   0.0000000  -0.0001365   0.0001164   0.0000000
           CY13          0.0000045   0.0000000   0.0002478  -0.0000532   0.0000000
           CZ13          0.0000000  -0.0000038   0.0000000   0.0000000  -0.0000428
           CX14          0.0018053   0.0000000   0.0002309  -0.0005805   0.0000000
           CY14          0.0014449   0.0000000  -0.0005901   0.0000836   0.0000000
           CZ14          0.0000000   0.0004555   0.0000000   0.0000000   0.0001242
           HX15         -0.0000110   0.0000000   0.0001070  -0.0005009   0.0000000
           HY15          0.0000626   0.0000000   0.0000383  -0.0000442   0.0000000
           HZ15          0.0000000   0.0000337   0.0000000   0.0000000   0.0000180
           HX16         -0.0091160   0.0000000   0.0004898  -0.0005741   0.0000000
           HY16         -0.0007552   0.0000000   0.0006928   0.0003961   0.0000000
           HZ16          0.0000000   0.0006742   0.0000000   0.0000000  -0.0002893
           HX17          0.0007951   0.0000000  -0.0001133  -0.0001434   0.0000000
           HY17         -0.0009534   0.0000000   0.0002624   0.0002317   0.0000000
           HZ17          0.0000000   0.0037160   0.0000000   0.0000000   0.0000085
           HX18          0.0000449   0.0000000   0.0000041  -0.0000660   0.0000000
           HY18          0.0000149   0.0000000  -0.0000063   0.0000584   0.0000000
           HZ18          0.0000000   0.0000434   0.0000000   0.0000000  -0.0000961
           HX19         -0.0005068   0.0000000   0.0000431  -0.0000321   0.0000000
           HY19          0.0001528   0.0000000  -0.0000539  -0.0000276   0.0000000
           HZ19          0.0000000  -0.0023593   0.0000000   0.0000000  -0.0000000
           HX20          0.0000375   0.0000000   0.0000131  -0.0000543   0.0000000
           HY20         -0.0000338   0.0000000   0.0000039   0.0001033   0.0000000
           HZ20          0.0000000  -0.0000218   0.0000000   0.0000000   0.0000522
                             CX6         CY6         CZ6         CX7         CY7     
           CX6           0.0663116
           CY6          -0.0055359   0.0652831
           CZ6           0.0000000   0.0000000   0.0117578
           CX7          -0.0021050  -0.0017702   0.0000000   0.0645487
           CY7          -0.0027886   0.0001038   0.0000000  -0.0119144   0.0732085
           CZ7           0.0000000   0.0000000   0.0002277   0.0000000   0.0000000
           CX8           0.0005766   0.0005221   0.0000000   0.0002664  -0.0000553
           CY8           0.0000787  -0.0004105   0.0000000  -0.0000553  -0.0000304
           CZ8           0.0000000   0.0000000   0.0006196   0.0000000   0.0000000
           HX9          -0.0570772   0.0479445   0.0000000  -0.0000214   0.0003692
           HY9           0.0481195  -0.0788789   0.0000000   0.0004864   0.0003855
           HZ9           0.0000000   0.0000000  -0.0115791   0.0000000   0.0000000
           HX10          0.0000062  -0.0002852   0.0000000  -0.0000862   0.0003690
           HY10         -0.0003001   0.0001284   0.0000000  -0.0000614   0.0001231
           HZ10          0.0000000   0.0000000  -0.0002753   0.0000000   0.0000000
           HX11         -0.0010421   0.0007156   0.0000000   0.0003804   0.0005782
           HY11          0.0011643  -0.0004532   0.0000000  -0.0006495   0.0004931
           HZ11          0.0000000   0.0000000   0.0021215   0.0000000   0.0000000
           HX12         -0.0017193  -0.0095212   0.0000000   0.0000562  -0.0004459
           HY12          0.0018127   0.0005029   0.0000000   0.0000254   0.0000244
           HZ12          0.0000000   0.0000000   0.0009579   0.0000000   0.0000000
           CX13          0.0003303   0.0005543   0.0000000  -0.0326354   0.0212037
           CY13         -0.0004186  -0.0004159   0.0000000   0.0192866  -0.0306743
           CZ13          0.0000000   0.0000000   0.0000225   0.0000000   0.0000000
           CX14         -0.0002717  -0.0000775   0.0000000  -0.0000783   0.0000177
           CY14          0.0001335   0.0001670   0.0000000   0.0001250  -0.0000052
           CZ14          0.0000000   0.0000000  -0.0000047   0.0000000   0.0000000
           HX15         -0.0015072   0.0005381   0.0000000  -0.0246659  -0.0215225
           HY15          0.0000153   0.0001898   0.0000000  -0.0207104  -0.1102188
           HZ15          0.0000000   0.0000000   0.0007183   0.0000000   0.0000000
           HX16          0.0000242   0.0000217   0.0000000   0.0000184  -0.0000271
           HY16         -0.0000010  -0.0000297   0.0000000   0.0000043   0.0000365
           HZ16          0.0000000   0.0000000  -0.0000223   0.0000000   0.0000000
           HX17         -0.0000570   0.0001215   0.0000000  -0.0000153  -0.0000296
           HY17          0.0000170  -0.0000751   0.0000000  -0.0000049  -0.0000237
           HZ17          0.0000000   0.0000000  -0.0002599   0.0000000   0.0000000
           HX18          0.0001358   0.0000622   0.0000000  -0.0045692  -0.0035924
           HY18         -0.0000383  -0.0001526   0.0000000   0.0082378   0.0028708
           HZ18          0.0000000   0.0000000  -0.0001246   0.0000000   0.0000000
           HX19          0.0000470  -0.0000130   0.0000000  -0.0000083   0.0000716
           HY19          0.0000045  -0.0000560   0.0000000   0.0000345   0.0000305
           HZ19          0.0000000   0.0000000   0.0000668   0.0000000   0.0000000
           HX20         -0.0005536   0.0001443   0.0000000   0.0032334   0.0084726
           HY20         -0.0002304   0.0001732   0.0000000  -0.0022870  -0.0038417
           HZ20          0.0000000   0.0000000   0.0000866   0.0000000   0.0000000
                             CZ7         CX8         CY8         CZ8         HX9     
           CZ7           0.0115318
           CX8           0.0000000   0.0645487
           CY8           0.0000000  -0.0119144   0.0732085
           CZ8          -0.0000892   0.0000000   0.0000000   0.0115318
           HX9           0.0000000  -0.0000862   0.0003690   0.0000000   0.2037471
           HY9           0.0000000  -0.0000614   0.0001231   0.0000000  -0.1728889
           HZ9          -0.0011249   0.0000000   0.0000000   0.0000156   0.0000000
           HX10          0.0000000  -0.0000214   0.0003692   0.0000000  -0.0000259
           HY10          0.0000000   0.0004864   0.0003855   0.0000000   0.0002287
           HZ10          0.0000156   0.0000000   0.0000000  -0.0011249   0.0000000
           HX11          0.0000000   0.0000562  -0.0004459   0.0000000   0.0006042
           HY11          0.0000000   0.0000254   0.0000244   0.0000000  -0.0006721
           HZ11         -0.0011105   0.0000000   0.0000000   0.0000444   0.0000000
           HX12          0.0000000   0.0003804   0.0005782   0.0000000   0.0018882
           HY12          0.0000000  -0.0006495   0.0004931   0.0000000   0.0001495
           HZ12          0.0000444   0.0000000   0.0000000  -0.0011105   0.0000000
           CX13          0.0000000  -0.0000783   0.0000177   0.0000000  -0.0003286
           CY13          0.0000000   0.0001250  -0.0000052   0.0000000  -0.0005282
           CZ13         -0.0043718   0.0000000   0.0000000   0.0000068   0.0000000
           CX14          0.0000000  -0.0326354   0.0212037   0.0000000  -0.0001091
           CY14          0.0000000   0.0192866  -0.0306743   0.0000000  -0.0001258
           CZ14          0.0000068   0.0000000   0.0000000  -0.0043718   0.0000000
           HX15          0.0000000   0.0000184  -0.0000271   0.0000000   0.0000134
           HY15          0.0000000   0.0000043   0.0000365   0.0000000   0.0000494
           HZ15         -0.0128180   0.0000000   0.0000000   0.0000081   0.0000000
           HX16          0.0000000  -0.0246659  -0.0215225   0.0000000  -0.0000103
           HY16          0.0000000  -0.0207104  -0.1102188   0.0000000   0.0000236
           HZ16          0.0000081   0.0000000   0.0000000  -0.0128180   0.0000000
           HX17          0.0000000  -0.0045692  -0.0035924   0.0000000  -0.0000605
           HY17          0.0000000   0.0082378   0.0028708   0.0000000   0.0000983
           HZ17         -0.0000019   0.0000000   0.0000000   0.0016228   0.0000000
           HX18          0.0000000  -0.0000153  -0.0000296   0.0000000   0.0001204
           HY18          0.0000000  -0.0000049  -0.0000237   0.0000000  -0.0000975
           HZ18          0.0016228   0.0000000   0.0000000  -0.0000019   0.0000000
           HX19          0.0000000   0.0032334   0.0084726   0.0000000   0.0000111
           HY19          0.0000000  -0.0022870  -0.0038417   0.0000000  -0.0000218
           HZ19          0.0000201   0.0000000   0.0000000   0.0013593   0.0000000
           HX20          0.0000000  -0.0000083   0.0000716   0.0000000  -0.0009272
           HY20          0.0000000   0.0000345   0.0000305   0.0000000  -0.0003995
           HZ20          0.0013593   0.0000000   0.0000000   0.0000201   0.0000000
                             HY9         HZ9         HX10        HY10        HZ10    
           HY9           0.2783143
           HZ9           0.0000000   0.0274356
           HX10          0.0002287   0.0000000   0.2037471
           HY10         -0.0000585   0.0000000  -0.1728889   0.2783143
           HZ10          0.0000000  -0.0011771   0.0000000   0.0000000   0.0274356
           HX11          0.0011155   0.0000000   0.0018882  -0.0000057   0.0000000
           HY11         -0.0007952   0.0000000   0.0001495   0.0011586   0.0000000
           HZ11          0.0000000   0.0001445   0.0000000   0.0000000  -0.0050715
           HX12         -0.0000057   0.0000000   0.0006042   0.0011155   0.0000000
           HY12          0.0011586   0.0000000  -0.0006721  -0.0007952   0.0000000
           HZ12          0.0000000  -0.0050715   0.0000000   0.0000000   0.0001445
           CX13          0.0001049   0.0000000  -0.0001091  -0.0000404   0.0000000
           CY13          0.0000674   0.0000000  -0.0001258  -0.0000356   0.0000000
           CZ13          0.0000000   0.0000940   0.0000000   0.0000000  -0.0000324
           CX14         -0.0000404   0.0000000  -0.0003286   0.0001049   0.0000000
           CY14         -0.0000356   0.0000000  -0.0005282   0.0000674   0.0000000
           CZ14          0.0000000  -0.0000324   0.0000000   0.0000000   0.0000940
           HX15          0.0000178   0.0000000  -0.0000103   0.0000061   0.0000000
           HY15          0.0001162   0.0000000   0.0000236   0.0000075   0.0000000
           HZ15          0.0000000  -0.0000609   0.0000000   0.0000000   0.0000128
           HX16          0.0000061   0.0000000   0.0000134   0.0000178   0.0000000
           HY16          0.0000075   0.0000000   0.0000494   0.0001162   0.0000000
           HZ16          0.0000000   0.0000128   0.0000000   0.0000000  -0.0000609
           HX17         -0.0000358   0.0000000   0.0001204   0.0000292   0.0000000
           HY17          0.0000304   0.0000000  -0.0000975   0.0000527   0.0000000
           HZ17          0.0000000   0.0000080   0.0000000   0.0000000   0.0001380
           HX18          0.0000292   0.0000000  -0.0000605  -0.0000358   0.0000000
           HY18          0.0000527   0.0000000   0.0000983   0.0000304   0.0000000
           HZ18          0.0000000   0.0001380   0.0000000   0.0000000   0.0000080
           HX19          0.0000163   0.0000000  -0.0009272  -0.0003412   0.0000000
           HY19         -0.0000100   0.0000000  -0.0003995   0.0004194   0.0000000
           HZ19          0.0000000  -0.0000126   0.0000000   0.0000000   0.0002572
           HX20         -0.0003412   0.0000000   0.0000111   0.0000163   0.0000000
           HY20          0.0004194   0.0000000  -0.0000218  -0.0000100   0.0000000
           HZ20          0.0000000   0.0002572   0.0000000   0.0000000  -0.0000126
                             HX11        HY11        HZ11        HX12        HY12    
           HX11          0.1072329
           HY11          0.1137422   0.3724026
           HZ11          0.0000000   0.0000000   0.0281411
           HX12          0.0001189  -0.0001721   0.0000000   0.1072329
           HY12         -0.0001721  -0.0001935   0.0000000   0.1137422   0.3724026
           HZ12          0.0000000   0.0000000  -0.0010602   0.0000000   0.0000000
           CX13         -0.0000223  -0.0000285   0.0000000   0.0000208  -0.0000057
           CY13         -0.0000804   0.0000507   0.0000000  -0.0000140  -0.0000002
           CZ13          0.0000000   0.0000000   0.0000345   0.0000000   0.0000000
           CX14          0.0000208  -0.0000057   0.0000000  -0.0000223  -0.0000285
           CY14         -0.0000140  -0.0000002   0.0000000  -0.0000804   0.0000507
           CZ14          0.0000000   0.0000000   0.0000088   0.0000000   0.0000000
           HX15          0.0002229   0.0007201   0.0000000  -0.0004494   0.0000092
           HY15         -0.0003668   0.0000205   0.0000000  -0.0000552   0.0000333
           HZ15          0.0000000   0.0000000  -0.0000350   0.0000000   0.0000000
           HX16         -0.0004494   0.0000092   0.0000000   0.0002229   0.0007201
           HY16         -0.0000552   0.0000333   0.0000000  -0.0003668   0.0000205
           HZ16          0.0000000   0.0000000  -0.0002151   0.0000000   0.0000000
           HX17         -0.0000164   0.0000108   0.0000000  -0.0000231   0.0000906
           HY17          0.0000461   0.0000064   0.0000000   0.0000017   0.0000370
           HZ17          0.0000000   0.0000000   0.0000057   0.0000000   0.0000000
           HX18         -0.0000231   0.0000906   0.0000000  -0.0000164   0.0000108
           HY18          0.0000017   0.0000370   0.0000000   0.0000461   0.0000064
           HZ18          0.0000000   0.0000000   0.0003226   0.0000000   0.0000000
           HX19         -0.0000542  -0.0000145   0.0000000   0.0001031  -0.0000844
           HY19         -0.0000210   0.0000007   0.0000000  -0.0000300  -0.0000366
           HZ19          0.0000000   0.0000000   0.0000201   0.0000000   0.0000000
           HX20          0.0001031  -0.0000844   0.0000000  -0.0000542  -0.0000145
           HY20         -0.0000300  -0.0000366   0.0000000  -0.0000210   0.0000007
           HZ20          0.0000000   0.0000000  -0.0000929   0.0000000   0.0000000
                             HZ12        CX13        CY13        CZ13        CX14    
           HZ12          0.0281411
           CX13          0.0000000   0.0745197
           CY13          0.0000000  -0.0089767   0.0724823
           CZ13          0.0000088   0.0000000   0.0000000   0.0094658
           CX14          0.0000000   0.0000121  -0.0000670   0.0000000   0.0745197
           CY14          0.0000000  -0.0000670   0.0000355   0.0000000  -0.0089767
           CZ14          0.0000345   0.0000000   0.0000000   0.0000045   0.0000000
           HX15          0.0000000   0.0023498   0.0093348   0.0000000  -0.0000246
           HY15          0.0000000  -0.0027328  -0.0044589   0.0000000  -0.0000071
           HZ15         -0.0002151   0.0000000   0.0000000   0.0016375   0.0000000
           HX16          0.0000000  -0.0000246  -0.0001022   0.0000000   0.0023498
           HY16          0.0000000  -0.0000071   0.0000346   0.0000000  -0.0027328
           HZ16         -0.0000350   0.0000000   0.0000000  -0.0000017   0.0000000
           HX17          0.0000000   0.0000135   0.0000110   0.0000000  -0.1092253
[...]
           CY14             0.01810    -0.00585    -0.07435     0.07547     0.02977
           CZ14            -0.00000    -0.00000    -0.00000     0.00000    -0.00000
           HX15            -0.08625    -0.02936    -0.15754    -0.15433    -0.03714
           HY15             0.01488     0.00679    -0.02541    -0.02451    -0.16672
           HZ15            -0.00000     0.00000     0.00000    -0.00000    -0.00000
           HX16             0.08625     0.02936     0.15754    -0.15433    -0.03714
           HY16            -0.01488    -0.00679     0.02541    -0.02451    -0.16672
           HZ16            -0.00000     0.00000    -0.00000     0.00000    -0.00000
           HX17             0.00456     0.00550     0.03605    -0.03788     0.45387
           HY17            -0.08751     0.01086     0.17451    -0.17408     0.14389
           HZ17             0.00000     0.00000     0.00000    -0.00000    -0.00000
           HX18            -0.00456    -0.00550    -0.03605    -0.03788     0.45387
           HY18             0.08751    -0.01086    -0.17451    -0.17408     0.14389
           HZ18             0.00000    -0.00000    -0.00000    -0.00000    -0.00000
           HX19             0.11553    -0.02271    -0.21034     0.21357    -0.07723
           HY19            -0.00331    -0.00243    -0.04416     0.04487    -0.45362
           HZ19            -0.00000     0.00000    -0.00000     0.00000     0.00000
           HX20            -0.11553     0.02271     0.21034     0.21357    -0.07723
           HY20             0.00331     0.00243     0.04416     0.04487    -0.45362
           HZ20             0.00000     0.00000     0.00000     0.00000    -0.00000

                             46 Ag       47 Bu       48 Ag       49 Bu       50 Ag 
 Wavenumbers [cm-1]         3396.93     3436.87     3436.92     3444.62     3448.11
 Intensities [km/mol]          0.00        4.25        0.00        0.94        0.00
 Intensities [relative]        0.00        4.33        0.00        0.96        0.00
           CX1             -0.00007     0.00155     0.00155    -0.00219    -0.00149
           CY1             -0.00016     0.00039     0.00036     0.00094     0.00264
           CZ1             -0.00000     0.00000     0.00000    -0.00000    -0.00000
           CX2              0.00011    -0.00090    -0.00109    -0.01737    -0.01777
           CY2             -0.00027    -0.00247    -0.00290    -0.05043    -0.05046
           CZ2             -0.00000     0.00000    -0.00000     0.00000     0.00000
           CX3              0.00053    -0.00009    -0.00076    -0.01364    -0.01371
           CY3             -0.00101     0.00078     0.00076     0.02134     0.02070
           CZ3              0.00000     0.00000    -0.00000    -0.00000     0.00000
           CX4              0.00007     0.00155    -0.00155    -0.00219     0.00149
           CY4              0.00016     0.00039    -0.00036     0.00094    -0.00264
           CZ4             -0.00000    -0.00000     0.00000     0.00000    -0.00000
           CX5             -0.00011    -0.00090     0.00109    -0.01737     0.01777
           CY5              0.00027    -0.00247     0.00290    -0.05043     0.05046
           CZ5             -0.00000     0.00000    -0.00000     0.00000    -0.00000
           CX6             -0.00053    -0.00009     0.00076    -0.01364     0.01371
           CY6              0.00101     0.00078    -0.00076     0.02134    -0.02070
           CZ6             -0.00000     0.00000    -0.00000    -0.00000     0.00000
           CX7             -0.00768    -0.00934    -0.00937     0.00042     0.00052
           CY7             -0.01015    -0.05781    -0.05785     0.00304     0.00307
           CZ7             -0.00000     0.00000    -0.00000    -0.00000     0.00000
           CX8              0.00768    -0.00934     0.00937     0.00042    -0.00052
           CY8              0.01015    -0.05781     0.05785     0.00304    -0.00307
           CZ8              0.00000    -0.00000     0.00000     0.00000    -0.00000
           HX9              0.00568     0.00527    -0.00664     0.18525    -0.18405
           HY9             -0.00764    -0.00693     0.00859    -0.23222     0.22942
           HZ9             -0.00000     0.00000    -0.00000    -0.00000     0.00000
           HX10            -0.00568     0.00527     0.00664     0.18525     0.18405
           HY10             0.00764    -0.00693    -0.00859    -0.23222    -0.22942
           HZ10            -0.00000    -0.00000     0.00000    -0.00000    -0.00000
           HX11             0.00055     0.00953     0.01171     0.20902     0.20988
           HY11             0.00178     0.02831     0.03375     0.56679     0.56784
           HZ11             0.00000     0.00000     0.00000    -0.00000    -0.00000
           HX12            -0.00055     0.00953    -0.01171     0.20902    -0.20988
           HY12            -0.00178     0.02831    -0.03375     0.56679    -0.56784
           HZ12             0.00000    -0.00000     0.00000    -0.00000     0.00000
           CX13             0.03624    -0.00984    -0.00966    -0.00042     0.00092
           CY13            -0.02974     0.01363     0.01351    -0.00025    -0.00055
           CZ13             0.00000    -0.00000     0.00000     0.00000    -0.00000
           CX14            -0.03624    -0.00984     0.00966    -0.00042    -0.00092
           CY14             0.02974     0.01363    -0.01351    -0.00025     0.00055
           CZ14            -0.00000     0.00000    -0.00000    -0.00000     0.00000
           HX15             0.03676     0.14401     0.14409    -0.00562    -0.00678
           HY15             0.16471     0.63314     0.63348    -0.03248    -0.03449
           HZ15            -0.00000     0.00000    -0.00000    -0.00000    -0.00000
           HX16            -0.03676     0.14401    -0.14409    -0.00562     0.00678
           HY16            -0.16471     0.63314    -0.63348    -0.03248     0.03449
           HZ16            -0.00000     0.00000    -0.00000    -0.00000     0.00000
           HX17             0.45425     0.08900    -0.08698     0.00749     0.00774
           HY17             0.14409     0.02807    -0.02740     0.00211     0.00252
           HZ17             0.00000    -0.00000    -0.00000    -0.00000    -0.00000
           HX18            -0.45425     0.08900     0.08698     0.00749    -0.00774
           HY18            -0.14409     0.02807     0.02740     0.00211    -0.00252
           HZ18            -0.00000     0.00000     0.00000    -0.00000    -0.00000
           HX19            -0.07729    -0.02607     0.02579    -0.00047    -0.00148
           HY19            -0.45416    -0.14053     0.13879    -0.00214    -0.00801
           HZ19             0.00000     0.00000     0.00000     0.00000    -0.00000
           HX20             0.07729    -0.02607    -0.02579    -0.00047     0.00148
           HY20             0.45416    -0.14053    -0.13879    -0.00214     0.00801
           HZ20            -0.00000     0.00000    -0.00000    -0.00000     0.00000

                             51 Bu       52 Ag       53 Bu       54 Ag 
 Wavenumbers [cm-1]         3466.12     3469.09     3547.48     3547.49
 Intensities [km/mol]          5.89        0.00        0.01        0.00
 Intensities [relative]        6.00        0.00        0.01        0.00
           CX1             -0.00010     0.00214     0.00032    -0.00032
           CY1              0.00380     0.00137    -0.00014     0.00015
           CZ1             -0.00000     0.00000     0.00000    -0.00000
           CX2             -0.01222     0.01180    -0.00002    -0.00007
           CY2             -0.02490     0.02510     0.00003    -0.00010
           CZ2              0.00000     0.00000     0.00000    -0.00000
           CX3              0.03524    -0.03533     0.00022     0.00032
           CY3             -0.04142     0.04183    -0.00027    -0.00035
           CZ3             -0.00000    -0.00000    -0.00000    -0.00000
           CX4             -0.00010    -0.00214     0.00032     0.00032
           CY4              0.00380    -0.00137    -0.00014    -0.00015
           CZ4              0.00000    -0.00000     0.00000     0.00000
           CX5             -0.01222    -0.01180    -0.00002     0.00007
           CY5             -0.02490    -0.02510     0.00003     0.00010
           CZ5             -0.00000    -0.00000    -0.00000    -0.00000
           CX6              0.03524     0.03533     0.00022    -0.00032
           CY6             -0.04142    -0.04183    -0.00027     0.00035
           CZ6             -0.00000    -0.00000    -0.00000    -0.00000
           CX7              0.00014    -0.00005    -0.00068     0.00068
           CY7              0.00005    -0.00089    -0.00322     0.00323
           CZ7              0.00000    -0.00000    -0.00000    -0.00000
           CX8              0.00014     0.00005    -0.00068    -0.00068
           CY8              0.00005     0.00089    -0.00322    -0.00323
           CZ8              0.00000     0.00000    -0.00000    -0.00000
           HX9             -0.37955    -0.38019    -0.00316     0.00404
           HY9              0.46951     0.47072     0.00415    -0.00518
           HZ9              0.00000    -0.00000    -0.00000     0.00000
           HX10            -0.37955     0.38019    -0.00316    -0.00404
           HY10             0.46951    -0.47072     0.00415     0.00518
           HZ10             0.00000     0.00000    -0.00000    -0.00000
           HX11             0.10348    -0.10166    -0.00005     0.00025
           HY11             0.27593    -0.27287     0.00014     0.00064
           HZ11             0.00000    -0.00000    -0.00000     0.00000
           HX12             0.10348     0.10166    -0.00005    -0.00025
           HY12             0.27593     0.27287     0.00014    -0.00064
           HZ12             0.00000    -0.00000     0.00000     0.00000
           CX13             0.00091     0.00085    -0.04397     0.04397
           CY13             0.00014     0.00034    -0.05033     0.05033
           CZ13            -0.00000     0.00000     0.00000     0.00000
           CX14             0.00091    -0.00085    -0.04397    -0.04397
           CY14             0.00014    -0.00034    -0.05033    -0.05033
           CZ14            -0.00000    -0.00000     0.00000     0.00000
           HX15            -0.00109     0.00009     0.00653    -0.00655
           HY15            -0.00358     0.00734     0.03721    -0.03733
           HZ15             0.00000     0.00000    -0.00000    -0.00000
           HX16            -0.00109    -0.00009     0.00653     0.00655
           HY16            -0.00358    -0.00734     0.03721     0.03733
           HZ16            -0.00000    -0.00000     0.00000     0.00000
           HX17            -0.00921     0.00991     0.44774     0.44771
           HY17            -0.00284     0.00282     0.13548     0.13546
           HZ17             0.00000    -0.00000    -0.00000    -0.00000
           HX18            -0.00921    -0.00991     0.44774    -0.44771
           HY18            -0.00284    -0.00282     0.13548    -0.13546
           HZ18            -0.00000     0.00000     0.00000    -0.00000
           HX19             0.00076    -0.00036     0.07485     0.07485
           HY19             0.00377    -0.00129     0.46564     0.46566
           HZ19             0.00000     0.00000     0.00000     0.00000
           HX20             0.00076     0.00036     0.07485    -0.07485
           HY20             0.00377     0.00129     0.46564    -0.46566
           HZ20             0.00000    -0.00000    -0.00000     0.00000


 Normal Modes of low/zero frequencies

                                  1           2           3           4           5
 Wavenumbers [cm-1]            0.00        0.00        0.00        0.00        0.00
 Intensities [km/mol]          0.00        0.00        0.00        0.00        0.00
 Intensities [relative]        0.00        0.00        0.00        0.00        0.00
           CX1              0.07977    -0.03508     0.00398     0.00136    -0.00620
           CY1              0.00605     0.00114    -0.03746    -0.03526     0.08505
           CZ1             -0.00683    -0.02725     0.07857    -0.00863     0.02426
           CX2              0.09395    -0.00823     0.01691     0.01057    -0.01976
           CY2              0.01824     0.02422    -0.02635    -0.02735     0.07340
           CZ2             -0.00094    -0.03916     0.02756     0.01523    -0.00039
           CX3              0.09096    -0.01390     0.01418     0.00863    -0.01690
           CY3              0.03643     0.05866    -0.00977    -0.01554     0.05601
           CZ3             -0.00083    -0.03478     0.00794     0.05875     0.01223
           CX4              0.07358    -0.04680    -0.00166    -0.00266    -0.00029
           CY4              0.04328     0.07163    -0.00352    -0.01109     0.04945
           CZ4             -0.00662    -0.01822     0.03857     0.08048     0.05023
           CX5              0.05940    -0.07365    -0.01459    -0.01187     0.01327
           CY5              0.03109     0.04856    -0.01463    -0.01900     0.06111
           CZ5             -0.01251    -0.00632     0.08958     0.05662     0.07488
           CX6              0.06239    -0.06798    -0.01186    -0.00992     0.01041
           CY6              0.01291     0.01412    -0.03121    -0.03081     0.07849
           CZ6             -0.01262    -0.01070     0.10920     0.01310     0.06226
           CX7              0.08370    -0.02765     0.00756     0.00391    -0.00996
           CY7             -0.01324    -0.03538    -0.05505    -0.04779     0.10349
           CZ7             -0.00667    -0.03259     0.09763    -0.05504     0.00933
           CX8              0.06966    -0.05423    -0.00524    -0.00521     0.00347
           CY8              0.06257     0.10816     0.01407     0.00144     0.03101
           CZ8             -0.00678    -0.01289     0.01951     0.12689     0.06515
           HX9              0.05114    -0.08928    -0.02212    -0.01723     0.02117
           HY9              0.00388    -0.00297    -0.03945    -0.03667     0.08713
           HZ9             -0.01725    -0.00119     0.14874    -0.00433     0.08204
           HX10             0.10221     0.00741     0.02444     0.01593    -0.02766
           HY10             0.04546     0.07575    -0.00154    -0.00967     0.04737
           HZ10             0.00380    -0.04428    -0.03160     0.07618    -0.00756
           HX11             0.10750     0.01742     0.02926     0.01936    -0.03271
           HY11             0.01323     0.01474    -0.03092    -0.03060     0.07818
           HZ11             0.00360    -0.05203     0.00320    -0.00093    -0.02989
           HX12             0.04586    -0.09929    -0.02694    -0.02066     0.02622
           HY12             0.03610     0.05804    -0.01006    -0.01575     0.05632
           HZ12            -0.01705     0.00656     0.11394     0.07278     0.10438
           CX13             0.07190    -0.04998    -0.00320    -0.00375     0.00132
           CY13            -0.02640    -0.06030    -0.06705    -0.05633     0.11607
           CZ13            -0.01177    -0.02296     0.14448    -0.08195     0.02875
           CX14             0.08145    -0.03190     0.00551     0.00245    -0.00781
           CY14             0.07573     0.13308     0.02607     0.00998     0.01843
           CZ14            -0.00168    -0.02252    -0.02734     0.15380     0.04573
           HX15             0.09779    -0.00096     0.02041     0.01306    -0.02343
           HY15            -0.01648    -0.04152    -0.05801    -0.04989     0.10659
           HZ15            -0.00182    -0.04581     0.06939    -0.06725    -0.02067
           HX16             0.05556    -0.08092    -0.01810    -0.01436     0.01694
           HY16             0.06581     0.11430     0.01703     0.00354     0.02791
           HZ16            -0.01163     0.00033     0.04775     0.13910     0.09515
           HX17             0.07725    -0.03985     0.00168    -0.00028    -0.00380
           HY17             0.08951     0.15918     0.03864     0.01893     0.00525
           HZ17            -0.00229    -0.01743    -0.03769     0.18742     0.05925
           HX18             0.07610    -0.04203     0.00063    -0.00102    -0.00270
           HY18            -0.04018    -0.08640    -0.07962    -0.06528     0.12925
           HZ18            -0.01116    -0.02805     0.15483    -0.11557     0.01523
           HX19             0.09567    -0.00497     0.01848     0.01169    -0.02141
           HY19             0.07343     0.12873     0.02397     0.00849     0.02063
           HZ19             0.00328    -0.03577    -0.05726     0.14376     0.01581
           HX20             0.05768    -0.07691    -0.01616    -0.01299     0.01492
           HY20            -0.02410    -0.05595    -0.06496    -0.05484     0.11388
           HZ20            -0.01673    -0.00970     0.17440    -0.07191     0.05867

                                  6
 Wavenumbers [cm-1]            0.00
 Intensities [km/mol]          0.00
 Intensities [relative]        0.00
           CX1             -0.00981
           CY1              0.01133
           CZ1              0.05725
           CX2             -0.00596
           CY2              0.01465
           CZ2              0.14588
           CX3             -0.00677
           CY3              0.01960
           CZ3              0.12121
           CX4             -0.01150
           CY4              0.02146
           CZ4              0.00634
           CX5             -0.01536
           CY5              0.01815
           CZ5             -0.08229
           CX6             -0.01454
           CY6              0.01320
           CZ6             -0.05762
           CX7             -0.00875
           CY7              0.00609
           CZ7              0.08829
           CX8             -0.01257
           CY8              0.02671
           CZ8             -0.02470
           HX9             -0.01760
           HY9              0.01074
           HZ9             -0.12812
           HX10            -0.00371
           HY10             0.02205
           HZ10             0.19171
           HX11            -0.00227
           HY11             0.01329
           HZ11             0.23532
           HX12            -0.01904
           HY12             0.01951
           HZ12            -0.17173
           CX13            -0.01196
           CY13             0.00251
           CZ13             0.01545
           CX14            -0.00936
           CY14             0.03029
           CZ14             0.04814
           HX15            -0.00491
           HY15             0.00520
           HZ15             0.18081
           HX16            -0.01640
           HY16             0.02759
           HZ16            -0.11722
           HX17            -0.01050
           HY17             0.03404
           HZ17             0.01690
           HX18            -0.01081
           HY18            -0.00124
           HZ18             0.04669
           HX19            -0.00549
           HY19             0.02967
           HZ19             0.14121
           HX20            -0.01582
           HY20             0.00313
           HZ20            -0.07763


 Zero point energy:  0.17746077 [H]    38948.14 [1/CM]      465.92 [KJ/MOL]
 Frequency information read from record  5400.2

        KS-SCF          KS-SCF          KS-SCF          KS-SCF          KS-SCF          KS-SCF          KS-SCF          KS-SCF  
   -382.05071124   -382.05071000   -382.05069133   -382.05069385   -382.05070887   -382.05070939   -382.05071000   -382.05070636
 **********************************************************************************************************************************
 Variable memory released
