20
Energy = -382.047088 Gradient = 0.107664
C  0.278679  -1.366832  0.000000
C  1.323030  -0.441736  0.000000
C  1.044345  0.924850  0.000000
C  -0.278679  1.366832  0.000000
C  -1.323030  0.441736  0.000000
C  -1.044345  -0.924850  0.000000
H  2.365954  -0.790377  0.000000
H  1.867461  1.654080  0.000000
H  -2.365954  0.790377  0.000000
H  -1.867461  -1.654080  0.000000
C  -0.586592  2.875899  0.000000
C  0.363502  3.800764  0.000000
H  -1.656478  3.123943  0.000000
H  0.144296  4.876932  0.000000
H  1.433388  3.552720  0.000000
C  0.586592  -2.875899  0.000000
C  -0.363502  -3.800764  0.000000
H  1.656478  -3.123943  0.000000
H  -0.144296  -4.876932  0.000000
H  -1.433388  -3.552720  0.000000
20
Energy = -382.051772 Gradient = 0.041194
C  0.283317  -1.393692  0.000000
C  1.333303  -0.438547  0.000000
C  1.054988  0.924060  0.000000
C  -0.283317  1.393692  0.000000
C  -1.333303  0.438547  0.000000
C  -1.054988  -0.924060  0.000000
H  2.365298  -0.790487  0.000000
H  1.866775  1.652350  0.000000
H  -2.365298  0.790487  0.000000
H  -1.866775  -1.652350  0.000000
C  -0.589091  2.855170  0.000000
C  0.370488  3.813223  0.000000
H  -1.656745  3.125544  0.000000
H  0.143228  4.876173  0.000000
H  1.431927  3.552810  0.000000
C  0.589091  -2.855170  0.000000
C  -0.370488  -3.813223  0.000000
H  1.656745  -3.125544  0.000000
H  -0.143228  -4.876173  0.000000
H  -1.431927  -3.552810  0.000000
20
Energy = -382.052436 Gradient = 0.016331
C  0.284108  -1.396637  0.000000
C  1.332923  -0.441737  0.000000
C  1.054053  0.925733  0.000000
C  -0.284108  1.396637  0.000000
C  -1.332923  0.441737  0.000000
C  -1.054053  -0.925733  0.000000
H  2.368189  -0.791186  0.000000
H  1.869130  1.652542  0.000000
H  -2.368189  0.791186  0.000000
H  -1.869130  -1.652542  0.000000
C  -0.583599  2.858685  0.000000
C  0.365592  3.808657  0.000000
H  -1.656193  3.125943  0.000000
H  0.141460  4.879231  0.000000
H  1.432597  3.553425  0.000000
C  0.583599  -2.858685  0.000000
C  -0.365592  -3.808657  0.000000
H  1.656193  -3.125943  0.000000
H  -0.141460  -4.879231  0.000000
H  -1.432597  -3.553425  0.000000
20
Energy = -382.052649 Gradient = 0.011130
C  0.283501  -1.397499  0.000000
C  1.332230  -0.444341  0.000000
C  1.052450  0.925998  0.000000
C  -0.283501  1.397499  0.000000
C  -1.332230  0.444341  0.000000
C  -1.052450  -0.925998  0.000000
H  2.371468  -0.791985  0.000000
H  1.872080  1.652616  0.000000
H  -2.371468  0.791985  0.000000
H  -1.872080  -1.652616  0.000000
C  -0.584111  2.860521  0.000000
C  0.365539  3.809853  0.000000
H  -1.653680  3.126179  0.000000
H  0.139353  4.880704  0.000000
H  1.431952  3.554489  0.000000
C  0.584111  -2.860521  0.000000
C  -0.365539  -3.809853  0.000000
H  1.653680  -3.126179  0.000000
H  -0.139353  -4.880704  0.000000
H  -1.431952  -3.554489  0.000000
20
Energy = -382.052889 Gradient = 0.011452
C  0.283029  -1.400870  0.000000
C  1.332865  -0.447613  0.000000
C  1.052722  0.925213  0.000000
C  -0.283029  1.400870  0.000000
C  -1.332865  0.447613  0.000000
C  -1.052722  -0.925213  0.000000
H  2.376880  -0.793335  0.000000
H  1.877181  1.651258  0.000000
H  -2.376880  0.793335  0.000000
H  -1.877181  -1.651258  0.000000
C  -0.583193  2.863462  0.000000
C  0.365074  3.814030  0.000000
H  -1.649795  3.127351  0.000000
H  0.134644  4.883578  0.000000
H  1.430660  3.557070  0.000000
C  0.583193  -2.863462  0.000000
C  -0.365074  -3.814030  0.000000
H  1.649795  -3.127351  0.000000
H  -0.134644  -4.883578  0.000000
H  -1.430660  -3.557070  0.000000
20
Energy = -382.053132 Gradient = 0.012677
C  0.281616  -1.404179  0.000000
C  1.335364  -0.451528  0.000000
C  1.054797  0.923743  0.000000
C  -0.281616  1.404179  0.000000
C  -1.335364  0.451528  0.000000
C  -1.054797  -0.923743  0.000000
H  2.382709  -0.794892  0.000000
H  1.883605  1.647556  0.000000
H  -2.382709  0.794892  0.000000
H  -1.883605  -1.647556  0.000000
C  -0.580654  2.867544  0.000000
C  0.364745  3.821059  0.000000
H  -1.645635  3.129862  0.000000
H  0.127315  4.888317  0.000000
H  1.428757  3.561764  0.000000
C  0.580654  -2.867544  0.000000
C  -0.364745  -3.821059  0.000000
H  1.645635  -3.129862  0.000000
H  -0.127315  -4.888317  0.000000
H  -1.428757  -3.561764  0.000000
20
Energy = -382.053366 Gradient = 0.011906
C  0.279477  -1.406125  0.000000
C  1.338079  -0.454955  0.000000
C  1.058355  0.920888  0.000000
C  -0.279477  1.406125  0.000000
C  -1.338079  0.454955  0.000000
C  -1.058355  -0.920888  0.000000
H  2.387540  -0.796630  0.000000
H  1.890325  1.641582  0.000000
H  -2.387540  0.796630  0.000000
H  -1.890325  -1.641582  0.000000
C  -0.576762  2.871762  0.000000
C  0.364267  3.829776  0.000000
H  -1.642138  3.133682  0.000000
H  0.118222  4.894895  0.000000
H  1.427052  3.568810  0.000000
C  0.576762  -2.871762  0.000000
C  -0.364267  -3.829776  0.000000
H  1.642138  -3.133682  0.000000
H  -0.118222  -4.894895  0.000000
H  -1.427052  -3.568810  0.000000
20
Energy = -382.053576 Gradient = 0.010628
C  0.276558  -1.406431  0.000000
C  1.340120  -0.457893  0.000000
C  1.061995  0.917707  0.000000
C  -0.276558  1.406431  0.000000
C  -1.340120  0.457893  0.000000
C  -1.061995  -0.917707  0.000000
H  2.389445  -0.798372  0.000000
H  1.896015  1.634065  0.000000
H  -2.389445  0.798372  0.000000
H  -1.896015  -1.634065  0.000000
C  -0.572723  2.874779  0.000000
C  0.363431  3.838267  0.000000
H  -1.639731  3.138153  0.000000
H  0.108980  4.902377  0.000000
H  1.426339  3.577981  0.000000
C  0.572723  -2.874779  0.000000
C  -0.363431  -3.838267  0.000000
H  1.639731  -3.138153  0.000000
H  -0.108980  -4.902377  0.000000
H  -1.426339  -3.577981  0.000000
20
Energy = -382.053777 Gradient = 0.011003
C  0.273426  -1.405938  0.000000
C  1.340036  -0.460191  0.000000
C  1.064881  0.914225  0.000000
C  -0.273426  1.405938  0.000000
C  -1.340036  0.460191  0.000000
C  -1.064881  -0.914225  0.000000
H  2.388195  -0.800443  0.000000
H  1.900598  1.625809  0.000000
H  -2.388195  0.800443  0.000000
H  -1.900598  -1.625809  0.000000
C  -0.569248  2.876514  0.000000
C  0.362023  3.845580  0.000000
H  -1.637980  3.142644  0.000000
H  0.100299  4.909880  0.000000
H  1.426779  3.589527  0.000000
C  0.569248  -2.876514  0.000000
C  -0.362023  -3.845580  0.000000
H  1.637980  -3.142644  0.000000
H  -0.100299  -4.909880  0.000000
H  -1.426779  -3.589527  0.000000
20
Energy = -382.054008 Gradient = 0.012602
C  0.269617  -1.405880  0.000000
C  1.337596  -0.462961  0.000000
C  1.066728  0.910708  0.000000
C  -0.269617  1.405880  0.000000
C  -1.337596  0.462961  0.000000
C  -1.066728  -0.910708  0.000000
H  2.383663  -0.803561  0.000000
H  1.905242  1.616022  0.000000
H  -2.383663  0.803561  0.000000
H  -1.905242  -1.616022  0.000000
C  -0.566085  2.877723  0.000000
C  0.359886  3.852817  0.000000
H  -1.635951  3.147320  0.000000
H  0.090898  4.917732  0.000000
H  1.428132  3.605832  0.000000
C  0.566085  -2.877723  0.000000
C  -0.359886  -3.852817  0.000000
H  1.635951  -3.147320  0.000000
H  -0.090898  -4.917732  0.000000
H  -1.428132  -3.605832  0.000000
20
Energy = -382.054285 Gradient = 0.013376
C  0.265079  -1.407644  0.000000
C  1.332039  -0.466633  0.000000
C  1.067535  0.907046  0.000000
C  -0.265079  1.407644  0.000000
C  -1.332039  0.466633  0.000000
C  -1.067535  -0.907046  0.000000
H  2.375883  -0.808662  0.000000
H  1.911003  1.604453  0.000000
H  -2.375883  0.808662  0.000000
H  -1.911003  -1.604453  0.000000
C  -0.562935  2.879482  0.000000
C  0.357059  3.860842  0.000000
H  -1.632865  3.151948  0.000000
H  0.079808  4.925703  0.000000
H  1.430037  3.629070  0.000000
C  0.562935  -2.879482  0.000000
C  -0.357059  -3.860842  0.000000
H  1.632865  -3.151948  0.000000
H  -0.079808  -4.925703  0.000000
H  -1.430037  -3.629070  0.000000
20
Energy = -382.054550 Gradient = 0.011493
C  0.260488  -1.411995  0.000000
C  1.324772  -0.470990  0.000000
C  1.067429  0.904445  0.000000
C  -0.260488  1.411995  0.000000
C  -1.324772  0.470990  0.000000
C  -1.067429  -0.904445  0.000000
H  2.366732  -0.815477  0.000000
H  1.917530  1.593661  0.000000
H  -2.366732  0.815477  0.000000
H  -1.917530  -1.593661  0.000000
C  -0.560029  2.882523  0.000000
C  0.354487  3.868965  0.000000
H  -1.628883  3.155106  0.000000
H  0.068545  4.931704  0.000000
H  1.431625  3.655664  0.000000
C  0.560029  -2.882523  0.000000
C  -0.354487  -3.868965  0.000000
H  1.628883  -3.155106  0.000000
H  -0.068545  -4.931704  0.000000
H  -1.431625  -3.655664  0.000000
20
Energy = -382.054724 Gradient = 0.007990
C  0.257319  -1.417181  0.000000
C  1.319183  -0.474319  0.000000
C  1.067457  0.903575  0.000000
C  -0.257319  1.417181  0.000000
C  -1.319183  0.474319  0.000000
C  -1.067457  -0.903575  0.000000
H  2.360348  -0.821870  0.000000
H  1.922905  1.587779  0.000000
H  -2.360348  0.821870  0.000000
H  -1.922905  -1.587779  0.000000
C  -0.557775  2.886288  0.000000
C  0.353451  3.875107  0.000000
H  -1.625552  3.155516  0.000000
H  0.060497  4.933897  0.000000
H  1.432122  3.675792  0.000000
C  0.557775  -2.886288  0.000000
C  -0.353451  -3.875107  0.000000
H  1.625552  -3.155516  0.000000
H  -0.060497  -4.933897  0.000000
H  -1.432122  -3.675792  0.000000
20
Energy = -382.054808 Gradient = 0.006018
C  0.255634  -1.420510  0.000000
C  1.317121  -0.476013  0.000000
C  1.068334  0.903918  0.000000
C  -0.255634  1.420510  0.000000
C  -1.317121  0.476013  0.000000
C  -1.068334  -0.903918  0.000000
H  2.357920  -0.826219  0.000000
H  1.926011  1.586872  0.000000
H  -2.357920  0.826219  0.000000
H  -1.926011  -1.586872  0.000000
C  -0.556140  2.889180  0.000000
C  0.353768  3.878638  0.000000
H  -1.623958  3.154067  0.000000
H  0.056365  4.933757  0.000000
H  1.432074  3.685477  0.000000
C  0.556140  -2.889180  0.000000
C  -0.353768  -3.878638  0.000000
H  1.623958  -3.154067  0.000000
H  -0.056365  -4.933757  0.000000
H  -1.432074  -3.685477  0.000000
20
Energy = -382.054862 Gradient = 0.005779
C  0.254286  -1.422031  0.000000
C  1.316726  -0.476878  0.000000
C  1.070020  0.904325  0.000000
C  -0.254286  1.422031  0.000000
C  -1.316726  0.476878  0.000000
C  -1.070020  -0.904325  0.000000
H  2.357045  -0.829806  0.000000
H  1.928040  1.587963  0.000000
H  -2.357045  0.829806  0.000000
H  -1.928040  -1.587963  0.000000
C  -0.554575  2.891037  0.000000
C  0.354429  3.881095  0.000000
H  -1.623334  3.151959  0.000000
H  0.053484  4.933626  0.000000
H  1.432377  3.690714  0.000000
C  0.554575  -2.891037  0.000000
C  -0.354429  -3.881095  0.000000
H  1.623334  -3.151959  0.000000
H  -0.053484  -4.933626  0.000000
H  -1.432377  -3.690714  0.000000
20
Energy = -382.054926 Gradient = 0.006098
C  0.252092  -1.422591  0.000000
C  1.316777  -0.477842  0.000000
C  1.073008  0.904663  0.000000
C  -0.252092  1.422591  0.000000
C  -1.316777  0.477842  0.000000
C  -1.073008  -0.904663  0.000000
H  2.355918  -0.834996  0.000000
H  1.930356  1.590223  0.000000
H  -2.355918  0.834996  0.000000
H  -1.930356  -1.590223  0.000000
C  -0.552275  2.892419  0.000000
C  0.355228  3.884080  0.000000
H  -1.622847  3.148591  0.000000
H  0.049441  4.934352  0.000000
H  1.433543  3.696896  0.000000
C  0.552275  -2.892419  0.000000
C  -0.355228  -3.884080  0.000000
H  1.622847  -3.148591  0.000000
H  -0.049441  -4.934352  0.000000
H  -1.433543  -3.696896  0.000000
20
Energy = -382.054991 Gradient = 0.005723
C  0.249093  -1.421816  0.000000
C  1.316829  -0.478874  0.000000
C  1.076833  0.904617  0.000000
C  -0.249093  1.421816  0.000000
C  -1.316829  0.478874  0.000000
C  -1.076833  -0.904617  0.000000
H  2.354112  -0.841603  0.000000
H  1.932581  1.593146  0.000000
H  -2.354112  0.841603  0.000000
H  -1.932581  -1.593146  0.000000
C  -0.549498  2.892554  0.000000
C  0.355748  3.887059  0.000000
H  -1.622218  3.144205  0.000000
H  0.044468  4.936204  0.000000
H  1.435604  3.704106  0.000000
C  0.549498  -2.892554  0.000000
C  -0.355748  -3.887059  0.000000
H  1.622218  -3.144205  0.000000
H  -0.044468  -4.936204  0.000000
H  -1.435604  -3.704106  0.000000
20
Energy = -382.055039 Gradient = 0.004382
C  0.246546  -1.420025  0.000000
C  1.316734  -0.479667  0.000000
C  1.079673  0.904177  0.000000
C  -0.246546  1.420025  0.000000
C  -1.316734  0.479667  0.000000
C  -1.079673  -0.904177  0.000000
H  2.352219  -0.847047  0.000000
H  1.933594  1.595440  0.000000
H  -2.352219  0.847047  0.000000
H  -1.933594  -1.595440  0.000000
C  -0.547394  2.891068  0.000000
C  0.355599  3.888532  0.000000
H  -1.621328  3.140392  0.000000
H  0.040777  4.938140  0.000000
H  1.437420  3.709413  0.000000
C  0.547394  -2.891068  0.000000
C  -0.355599  -3.888532  0.000000
H  1.621328  -3.140392  0.000000
H  -0.040777  -4.938140  0.000000
H  -1.437420  -3.709413  0.000000
20
Energy = -382.055067 Gradient = 0.003393
C  0.245210  -1.418298  0.000000
C  1.316598  -0.480120  0.000000
C  1.080797  0.903536  0.000000
C  -0.245210  1.418298  0.000000
C  -1.316598  0.480120  0.000000
C  -1.080797  -0.903536  0.000000
H  2.351021  -0.850067  0.000000
H  1.933382  1.596492  0.000000
H  -2.351021  0.850067  0.000000
H  -1.933382  -1.596492  0.000000
C  -0.546312  2.888961  0.000000
C  0.354981  3.888395  0.000000
H  -1.620198  3.137976  0.000000
H  0.039242  4.939081  0.000000
H  1.438029  3.711586  0.000000
C  0.546312  -2.888961  0.000000
C  -0.354981  -3.888395  0.000000
H  1.620198  -3.137976  0.000000
H  -0.039242  -4.939081  0.000000
H  -1.438029  -3.711586  0.000000
20
Energy = -382.055086 Gradient = 0.003053
C  0.244456  -1.417016  0.000000
C  1.316545  -0.480618  0.000000
C  1.081101  0.902760  0.000000
C  -0.244456  1.417016  0.000000
C  -1.316545  0.480618  0.000000
C  -1.081101  -0.902760  0.000000
H  2.350368  -0.852077  0.000000
H  1.932801  1.596625  0.000000
H  -2.350368  0.852077  0.000000
H  -1.932801  -1.596625  0.000000
C  -0.545500  2.886954  0.000000
C  0.354187  3.887776  0.000000
H  -1.618697  3.136165  0.000000
H  0.038493  4.939188  0.000000
H  1.437626  3.712496  0.000000
C  0.545500  -2.886954  0.000000
C  -0.354187  -3.887776  0.000000
H  1.618697  -3.136165  0.000000
H  -0.038493  -4.939188  0.000000
H  -1.437626  -3.712496  0.000000
20
Energy = -382.055103 Gradient = 0.002698
C  0.243750  -1.416231  0.000000
C  1.316600  -0.481405  0.000000
C  1.081269  0.901753  0.000000
C  -0.243750  1.416231  0.000000
C  -1.316600  0.481405  0.000000
C  -1.081269  -0.901753  0.000000
H  2.350025  -0.854177  0.000000
H  1.932432  1.595991  0.000000
H  -2.350025  0.854177  0.000000
H  -1.932432  -1.595991  0.000000
C  -0.544431  2.885354  0.000000
C  0.353362  3.887426  0.000000
H  -1.616780  3.134358  0.000000
H  0.037433  4.938753  0.000000
H  1.436531  3.713574  0.000000
C  0.544431  -2.885354  0.000000
C  -0.353362  -3.887426  0.000000
H  1.616780  -3.134358  0.000000
H  -0.037433  -4.938753  0.000000
H  -1.436531  -3.713574  0.000000
20
Energy = -382.055113 Gradient = 0.002036
C  0.243026  -1.416070  0.000000
C  1.316743  -0.482372  0.000000
C  1.081579  0.900748  0.000000
C  -0.243026  1.416070  0.000000
C  -1.316743  0.482372  0.000000
C  -1.081579  -0.900748  0.000000
H  2.349903  -0.856251  0.000000
H  1.932620  1.594799  0.000000
H  -2.349903  0.856251  0.000000
H  -1.932620  -1.594799  0.000000
C  -0.543240  2.884659  0.000000
C  0.352823  3.887702  0.000000
H  -1.615127  3.132782  0.000000
H  0.035830  4.938080  0.000000
H  1.435376  3.715090  0.000000
C  0.543240  -2.884659  0.000000
C  -0.352823  -3.887702  0.000000
H  1.615127  -3.132782  0.000000
H  -0.035830  -4.938080  0.000000
H  -1.435376  -3.715090  0.000000
20
Energy = -382.055118 Gradient = 0.001622
C  0.242430  -1.416259  0.000000
C  1.316868  -0.483168  0.000000
C  1.081972  0.900001  0.000000
C  -0.242430  1.416259  0.000000
C  -1.316868  0.483168  0.000000
C  -1.081972  -0.900001  0.000000
H  2.349862  -0.857789  0.000000
H  1.933179  1.593576  0.000000
H  -2.349862  0.857789  0.000000
H  -1.933179  -1.593576  0.000000
C  -0.542381  2.884690  0.000000
C  0.352679  3.888245  0.000000
H  -1.614355  3.131718  0.000000
H  0.034192  4.937507  0.000000
H  1.434797  3.716449  0.000000
C  0.542381  -2.884690  0.000000
C  -0.352679  -3.888245  0.000000
H  1.614355  -3.131718  0.000000
H  -0.034192  -4.937507  0.000000
H  -1.434797  -3.716449  0.000000
20
Energy = -382.055122 Gradient = 0.001604
C  0.241904  -1.416452  0.000000
C  1.316944  -0.483855  0.000000
C  1.082369  0.899357  0.000000
C  -0.241904  1.416452  0.000000
C  -1.316944  0.483855  0.000000
C  -1.082369  -0.899357  0.000000
H  2.349788  -0.859044  0.000000
H  1.933858  1.592326  0.000000
H  -2.349788  0.859044  0.000000
H  -1.933858  -1.592326  0.000000
C  -0.541835  2.884837  0.000000
C  0.352721  3.888645  0.000000
H  -1.614181  3.130786  0.000000
H  0.032583  4.936941  0.000000
H  1.434690  3.717430  0.000000
C  0.541835  -2.884837  0.000000
C  -0.352721  -3.888645  0.000000
H  1.614181  -3.130786  0.000000
H  -0.032583  -4.936941  0.000000
H  -1.434690  -3.717430  0.000000
