 *******************************************************************************
 ** Site#: 13181           For non-commercial use only        Version 13.326L **
 *******************************************************************************
 ** Cite this work as:                                                        **
 **                                                                           **
 ** (a) MOPAC2012, James J. P. Stewart, Stewart Computational Chemistry,      **
 **  Version 13.326L web: HTTP://OpenMOPAC.net         Days remaining: 252    **
 **                                                                           **
 **                                 AND                                       **
 **                                                                           **
 ** (b) Maia, J.D.C., et al., J. Chem. Theory Comput. 2012, 8, 3072-3081.     **
 **                DOI: 10.1021/ct3004645.                                    **
 *******************************************************************************
 **                                                                           **
 **                                MOPAC2012                                  **
 **                                                                           **
 *******************************************************************************

                            PM7 CALCULATION RESULTS


 *******************************************************************************
 *  CALCULATION DONE:                                Sat Mar 15 22:28:01 2014  *
 *  PM7      - The PM7 Hamiltonian to be used
 *  SINGLET  - SPIN STATE DEFINED AS A SINGLET
 *
 *
 *
 *                 CHARGE ON SYSTEM =     0
 *
 *
 *
 *  FORCE    - FORCE CALCULATION SPECIFIED
 *  T=       - A TIME OF 172800.0 SECONDS REQUESTED
 *  DUMP=N   - RESTART FILE WRITTEN EVERY  7200.000 SECONDS
 *  AUX      - OUTPUT AUXILIARY INFORMATION
 *  LARGE    - EXPANDED OUTPUT TO BE PRINTED
 *******************************************************************************
 AUX LARGE CHARGE=0 SINGLET FORCE PM7
 Divinylbenzene vibration modes PM7

  ATOM    CHEMICAL      BOND LENGTH      BOND ANGLE     TWIST ANGLE 
 NUMBER    SYMBOL       (ANGSTROMS)      (DEGREES)       (DEGREES) 
   (I)                     NA:I           NB:NA:I       NC:NB:NA:I       NA    NB    NC 
     1       C          0.00000000  *    0.0000000  *    0.0000000  *     0     0     0
     2       C          2.79860000  *    0.0000000  *    0.0000000  *     1     0     0
     3       C          1.39760000  *   59.7800000  *    0.0000000  *     1     2     0
     4       C          1.39920000  *   59.7900000  *  179.6600000  *     2     1     3
     5       C          1.39140000  *  120.2200000  *    0.1800000  *     3     1     2
     6       C          1.39030000  *  120.2000000  *    0.4700000  *     4     2     1
     7       H          1.08880000  *  119.8000000  *  179.7800000  *     3     1     2
     8       H          1.08850000  *  119.8500000  * -179.9743770  *     4     2     1
     9       H          1.08880000  *  119.9700000  * -179.9743770  *     5     3     1
    10       H          1.08850000  *  119.9400000  *  179.5200000  *     6     4     2
    11       C          3.76300000  *  101.2800000  *   -0.1900000  *     3     1     2
    12       C          2.48870000  *   30.3500000  *  179.4000000  *     3     1     2
    13       H          1.09240000  *  115.0300000  *   -2.0500000  *    11     2     1
    14       H          1.09240000  *  115.0100000  *   -2.3800000  *    12     1     2
    15       C          1.33460000  *  123.2500000  *  177.3200000  *    11     2     1
    16       C          1.33460000  *  123.3200000  *  177.0200000  *    12     1     2
    17       H          1.07980000  *  123.6800000  *   -0.1800000  *    15    11     2
    18       H          1.07980000  *  123.6900000  *   -0.1900000  *    16    12     1
    19       H          1.07900000  *  123.4200000  * -179.6200000  *    15    11     2
    20       H          1.07900000  *  123.4200000  * -179.6400000  *    16    12     1
 


          CARTESIAN COORDINATES 

    NO.       ATOM         X         Y         Z

     1         C        0.0000    0.0000    0.0000
     2         C        2.7986    0.0000    0.0000
     3         C        0.7034    1.2077    0.0000
     4         C        2.0946   -1.2091    0.0072
     5         C        2.0948    1.2077   -0.0038
     6         C        0.7043   -1.2090   -0.0027
     7         H        0.1594    2.1508   -0.0036
     8         H        2.6378   -2.1524    0.0132
     9         H        2.6387    2.1509   -0.0033
    10         H        0.1609   -2.1522   -0.0049
    11         C        4.2627   -0.0137    0.0122
    12         C       -1.4640   -0.0152   -0.0132
    13         H        4.7124   -0.7324    0.7011
    14         H       -1.9123   -0.7410   -0.6956
    15         C        5.0084    0.7764   -0.7629
    16         C       -2.2124    0.7813    0.7528
    17         H        4.5977    1.4878   -1.4638
    18         H       -1.8043    1.5004    1.4473
    19         H        6.0873    0.7644   -0.7604
    20         H       -3.2913    0.7675    0.7485

     ===================== shared-memory parallel CPU Section ======================
     **                                                                           **
     **  MOPAC calculations will run in shared-memory parallel CPUs               **
     **                                                                           **
     **  Number of Threads =  6                                                   **
     **                                                                           **
     **  For information on this work, see:                                       **
     **                                                                           **
     **  Maia, J.D.C., et al., J. Chem. Theory Comput. 2012, 8, 3072-3081.        **
     **        DOI: 10.1021/ct3004645.                                            **
     **                                                                           **
     ===================== shared-memory parallel CPU Section ======================


 General Reference for PM7:
 "Optimization of Parameters for Semiempirical Methods VI: More Modifications to the 
 NDDO Approximations and Re-optimization of Parameters", J. J. P. Stewart, J. Mol. Mod., 1:32, 19 (2013)
 http://www.springerlink.com/openurl.asp?genre=article&id=doi:10.1007/s00894-012-1667-x

           Empirical Formula: C10 H10  =    20 atoms



      MOLECULAR POINT GROUP   :   C2  


 SINGLET STATE CALCULATION


      RHF CALCULATION, NO. OF DOUBLY OCCUPIED LEVELS =   25



          HEAT OF FORMATION =      50.394572 KCALS/MOLE


          INTERNAL COORDINATE DERIVATIVES

   NUMBER  ATOM       BOND         ANGLE      DIHEDRAL

     1       C      0.123904    -0.396011     0.709588
     2       C      0.054092    -0.526098    -0.770190
     3       C     -0.000303    -0.052103     0.043019
     4       C     -0.035691     0.029245    -0.052716
     5       C     -0.072354     0.060187    -0.022777
     6       C     -0.007866     0.185993     0.020772
     7       H     -0.011071    -0.011691    -0.001641
     8       H     -0.004810     0.012773     0.026260
     9       H     -0.007239     0.002187    -0.000286
    10       H     -0.003346     0.050947    -0.005254
    11       C     -0.044945     0.315121     0.468267
    12       C      0.095279     0.258341    -0.389085
    13       H     -0.009331    -0.018010    -0.001884
    14       H      0.016450     0.037520     0.033137
    15       C      0.007028     0.060135    -0.055450
    16       C     -0.089717    -0.004757    -0.003481
    17       H     -0.017711    -0.010929    -0.010431
    18       H      0.007331     0.005070     0.009516
    19       H      0.017700    -0.005541    -0.003275
    20       H     -0.017395     0.007616     0.005910
 DIPOLE           X         Y         Z       TOTAL
 POINT-CHG.     0.001    -0.021    -0.001     0.021
 HYBRID        -0.000     0.018    -0.000     0.018
 SUM            0.001    -0.003    -0.001     0.004


          GRADIENT NORM =   1.47433


          TIME FOR SCF CALCULATION =    0.02

          TIME FOR DERIVATIVES     =    0.01

          MOLECULAR WEIGHT =  130.19



          ROTATIONAL CONSTANTS IN CM(-1)

          A =    0.14287774   B =    0.02429614   C =    0.02136155



           PRINCIPAL MOMENTS OF INERTIA IN UNITS OF 10**(-40)*GRAM-CM**2

          A =      195.9212   B =     1152.1490   C =     1310.4278


          ORIENTATION OF MOLECULE IN FORCE CALCULATION

    NO.       ATOM         X         Y         Z

     1          C      -1.3990   -0.1643    0.0011
     2          C       1.3996   -0.1643    0.0011
     3          C      -0.6956    1.0433    0.0011
     4          C       0.6956   -1.3735    0.0083
     5          C       0.6958    1.0433   -0.0027
     6          C      -0.6947   -1.3733   -0.0016
     7          H      -1.2396    1.9864   -0.0025
     8          H       1.2388   -2.3167    0.0143
     9          H       1.2397    1.9865   -0.0022
    10          H      -1.2381   -2.3165   -0.0038
    11          C       2.8637   -0.1781    0.0134
    12          C      -2.8631   -0.1796   -0.0120
    13          H       3.3134   -0.8967    0.7023
    14          H      -3.3113   -0.9053   -0.6945
    15          C       3.6094    0.6120   -0.7618
    16          C      -3.6114    0.6170    0.7539
    17          H       3.1987    1.3234   -1.4627
    18          H      -3.2034    1.3360    1.4484
    19          H       4.6883    0.6001   -0.7593
    20          H      -4.6903    0.6032    0.7496


    FIRST DERIVATIVES WILL BE USED IN THE CALCULATION OF SECOND DERIVATIVES

          ESTIMATED TIME TO COMPLETE CALCULATION =        2.81 SECONDS

    FOR POINT-GROUP C2   THERE ARE   2 UNIQUE SYMMETRY FUNCTIONS.

 STEP:   1 TIME =     0.02 SECS, INTEGRAL =      0.02 TIME LEFT: 172799.96
 STEP:   2 TIME =     0.02 SECS, INTEGRAL =      0.04 TIME LEFT: 172799.94
 STEP:   3 TIME =     0.02 SECS, INTEGRAL =      0.05 TIME LEFT: 172799.92
 STEP:   4                       INTEGRAL =      0.05 TIME LEFT: 172799.92
 STEP:   5                       INTEGRAL =      0.05 TIME LEFT: 172799.92
 STEP:   6                       INTEGRAL =      0.05 TIME LEFT: 172799.92
 STEP:   7 TIME =     0.02 SECS, INTEGRAL =      0.08 TIME LEFT: 172799.90
 STEP:   8 TIME =     0.02 SECS, INTEGRAL =      0.10 TIME LEFT: 172799.88
 STEP:   9 TIME =     0.02 SECS, INTEGRAL =      0.12 TIME LEFT: 172799.86
 STEP:  10 TIME =     0.02 SECS, INTEGRAL =      0.14 TIME LEFT: 172799.84
 STEP:  11 TIME =     0.02 SECS, INTEGRAL =      0.16 TIME LEFT: 172799.82
 STEP:  12 TIME =     0.02 SECS, INTEGRAL =      0.18 TIME LEFT: 172799.80
 STEP:  13                       INTEGRAL =      0.18 TIME LEFT: 172799.80
 STEP:  14                       INTEGRAL =      0.18 TIME LEFT: 172799.80
 STEP:  15                       INTEGRAL =      0.18 TIME LEFT: 172799.80
 STEP:  16                       INTEGRAL =      0.18 TIME LEFT: 172799.80
 STEP:  17                       INTEGRAL =      0.18 TIME LEFT: 172799.80
 STEP:  18                       INTEGRAL =      0.18 TIME LEFT: 172799.80
 STEP:  19 TIME =     0.02 SECS, INTEGRAL =      0.20 TIME LEFT: 172799.77
 STEP:  20 TIME =     0.02 SECS, INTEGRAL =      0.22 TIME LEFT: 172799.76
 STEP:  21 TIME =     0.02 SECS, INTEGRAL =      0.24 TIME LEFT: 172799.73
 STEP:  22 TIME =     0.02 SECS, INTEGRAL =      0.26 TIME LEFT: 172799.72
 STEP:  23 TIME =     0.02 SECS, INTEGRAL =      0.27 TIME LEFT: 172799.70
 STEP:  24 TIME =     0.02 SECS, INTEGRAL =      0.29 TIME LEFT: 172799.69
 STEP:  25                       INTEGRAL =      0.29 TIME LEFT: 172799.69
 STEP:  26                       INTEGRAL =      0.29 TIME LEFT: 172799.69
 STEP:  27                       INTEGRAL =      0.29 TIME LEFT: 172799.69
 STEP:  28                       INTEGRAL =      0.29 TIME LEFT: 172799.69
 STEP:  29                       INTEGRAL =      0.29 TIME LEFT: 172799.69
 STEP:  30                       INTEGRAL =      0.29 TIME LEFT: 172799.69
 STEP:  31 TIME =     0.02 SECS, INTEGRAL =      0.31 TIME LEFT: 172799.66
 STEP:  32 TIME =     0.02 SECS, INTEGRAL =      0.33 TIME LEFT: 172799.65
 STEP:  33 TIME =     0.02 SECS, INTEGRAL =      0.35 TIME LEFT: 172799.62
 STEP:  34                       INTEGRAL =      0.35 TIME LEFT: 172799.62
 STEP:  35                       INTEGRAL =      0.35 TIME LEFT: 172799.62
 STEP:  36                       INTEGRAL =      0.35 TIME LEFT: 172799.62
 STEP:  37 TIME =     0.02 SECS, INTEGRAL =      0.37 TIME LEFT: 172799.61
 STEP:  38 TIME =     0.02 SECS, INTEGRAL =      0.38 TIME LEFT: 172799.59
 STEP:  39 TIME =     0.02 SECS, INTEGRAL =      0.41 TIME LEFT: 172799.57
 STEP:  40                       INTEGRAL =      0.41 TIME LEFT: 172799.57
 STEP:  41                       INTEGRAL =      0.41 TIME LEFT: 172799.57
 STEP:  42                       INTEGRAL =      0.41 TIME LEFT: 172799.57
 STEP:  43 TIME =     0.02 SECS, INTEGRAL =      0.42 TIME LEFT: 172799.55
 STEP:  44 TIME =     0.02 SECS, INTEGRAL =      0.44 TIME LEFT: 172799.54
 STEP:  45 TIME =     0.04 SECS, INTEGRAL =      0.48 TIME LEFT: 172799.50
 STEP:  46                       INTEGRAL =      0.48 TIME LEFT: 172799.50
 STEP:  47                       INTEGRAL =      0.48 TIME LEFT: 172799.50
 STEP:  48                       INTEGRAL =      0.48 TIME LEFT: 172799.50
 STEP:  49 TIME =     0.02 SECS, INTEGRAL =      0.50 TIME LEFT: 172799.48
 STEP:  50 TIME =     0.02 SECS, INTEGRAL =      0.52 TIME LEFT: 172799.46
 STEP:  51 TIME =     0.02 SECS, INTEGRAL =      0.54 TIME LEFT: 172799.44
 STEP:  52                       INTEGRAL =      0.54 TIME LEFT: 172799.44
 STEP:  53                       INTEGRAL =      0.54 TIME LEFT: 172799.44
 STEP:  54                       INTEGRAL =      0.54 TIME LEFT: 172799.44
 STEP:  55 TIME =     0.02 SECS, INTEGRAL =      0.56 TIME LEFT: 172799.41
 STEP:  56 TIME =     0.02 SECS, INTEGRAL =      0.58 TIME LEFT: 172799.40
 STEP:  57 TIME =     0.02 SECS, INTEGRAL =      0.60 TIME LEFT: 172799.38
 STEP:  58                       INTEGRAL =      0.60 TIME LEFT: 172799.38
 STEP:  59                       INTEGRAL =      0.60 TIME LEFT: 172799.38
 STEP:  60                       INTEGRAL =      0.60 TIME LEFT: 172799.38

(To convert to Hartree/Bohr^2, multiply by (10^(-21) x N x a0^2)/(4.184 x 627.51) =  0.0642)


           FORCE MATRIX IN MILLIDYNES/ANGSTROM


                  C  1       C  2       C  3       C  4       C  5       C  6
 ------------------------------------------------------------------------------
     C    1  16.399033
     C    2   1.676612  16.399033
     C    3   5.837315   2.344111  15.155616
     C    4   2.345909   5.763165   1.695564  15.158859
     C    5   2.344216   5.836411   6.128417   2.320855  15.155616
     C    6   5.762107   2.346752   2.323113   6.194405   1.695564  15.158859
     H    7   0.748235   0.096249   3.465535   0.011423   0.753033   0.089900
     H    8   0.097420   0.746569   0.011132   3.471529   0.089490   0.756527
     H    9   0.096351   0.748203   0.753027   0.090025   3.465573   0.011534
     H   10   0.746543   0.097560   0.089481   0.756532   0.011365   3.471702
     C   11   0.016560   4.419965   0.098097   0.874385   0.830256   0.104245
     C   12   4.419587   0.016536   0.829863   0.104308   0.097899   0.874404
     H   13   0.003273   0.731964   0.011052   0.027370   0.031314   0.009416
     H   14   0.731805   0.003636   0.031217   0.009580   0.011233   0.027627
     C   15   0.008390   0.953727   0.013168   0.044669   0.054070   0.021028
     C   16   0.953523   0.008542   0.053932   0.021574   0.012754   0.044796
     H   17   0.002299   0.081958   0.004510   0.012406   0.015952   0.004555
     H   18   0.081588   0.002725   0.016227   0.004984   0.004637   0.012640
     H   19   0.002080   0.146468   0.005317   0.018261   0.017371   0.006530
     H   20   0.146361   0.002662   0.017977   0.006785   0.005617   0.018923


                  H  7       H  8       H  9       H 10       C 11       C 12
 ------------------------------------------------------------------------------
     H    7   4.378678
     H    8   0.012568   4.383936
     H    9   0.034099   0.008432   4.378678
     H   10   0.008441   0.034974   0.012568   4.383936
     C   11   0.009487   0.041147   0.041663   0.008689  17.056105
     C   12   0.041645   0.008645   0.009561   0.041207   0.012910  17.056105
     H   13   0.001317   0.014655   0.005123   0.001346   3.430086   0.001188
     H   14   0.005132   0.001352   0.001318   0.014664   0.001304   3.430491
     C   15   0.002728   0.008291   0.014170   0.002555  10.317920   0.002061
     C   16   0.014245   0.002473   0.002664   0.008247   0.002015  10.318235
     H   17   0.002132   0.002729   0.014995   0.001139   0.805919   0.001437
     H   18   0.015082   0.001126   0.002091   0.002723   0.001575   0.805674
     H   19   0.000832   0.003875   0.004324   0.000889   0.804945   0.000804
     H   20   0.004330   0.000918   0.000868   0.003863   0.000761   0.804870


                  H 13       H 14       C 15       C 16       H 17       H 18
 ------------------------------------------------------------------------------
     H   13   4.350458
     H   14   0.000395   4.350458
     C   15   0.816492   0.001503  15.902072
     C   16   0.001549   0.816715   0.004361  15.902072
     H   17   0.143831   0.000824   3.564969   0.002167   4.304518
     H   18   0.000815   0.143812   0.002103   3.564967   0.000955   4.304518
     H   19   0.070585   0.000750   3.568384   0.002609   0.465012   0.000998
     H   20   0.000768   0.070926   0.002538   3.568310   0.001030   0.465094


                  H 19       H 20
 ------------------------------
     H   19   4.309971
     H   20   0.001659   4.309971


          HEAT OF FORMATION =      50.394572 KCALS/MOLE


          TRIVIAL VIBRATIONS, SHOULD BE ZERO

 -16.0348=TX   2.3470=TY   0.0105=TZ   0.0103=RX -46.0831=RY -40.2492=RZ


      MOLECULAR POINT GROUP   :   C2  


           EIGENVECTORS  


   Root No.       1         2         3         4         5         6         7         8

                 1 A       1 B       2 B       2 A       3 A       3 B       4 A       4 B   

                   0.0       0.0       0.0       0.1       0.1       0.1       0.1       0.2
  
           1   -0.0054    0.0146   -0.0351   -0.0064    0.0055    0.0488    0.0013   -0.0403
           2   -0.0575   -0.0235   -0.0276    0.1212    0.0843    0.1444    0.0063    0.0283
           3    0.0483    0.0772   -0.0992    0.0841   -0.1880   -0.0094    0.0035   -0.1493
           4    0.0033    0.0153   -0.0352    0.0062   -0.0047    0.0486   -0.0014   -0.0403
           5   -0.0601    0.0179    0.0264    0.1201    0.0829   -0.1461    0.0060   -0.0290
           6   -0.0577    0.0711   -0.0985   -0.0861    0.1871   -0.0115   -0.0039   -0.1491
           7   -0.0000    0.0002   -0.0559   -0.0051   -0.0012    0.1522   -0.0010   -0.0231
           8   -0.0599   -0.0137   -0.0144    0.1159    0.0863    0.0789    0.0067    0.0164
           9    0.0096    0.2218   -0.1380    0.0538   -0.1235   -0.0477   -0.1334    0.0263
          10   -0.0023    0.0372   -0.0114   -0.0042   -0.0044   -0.0509    0.0002   -0.0681
          11   -0.0584    0.0062    0.0127    0.1200    0.0809   -0.0809    0.0045   -0.0143
          12   -0.0258   -0.0612   -0.1908   -0.0474    0.1201   -0.0321   -0.1415    0.0162
          13   -0.0005    0.0002   -0.0561    0.0054    0.0041    0.1520    0.0009   -0.0231
          14   -0.0613    0.0085    0.0133    0.1153    0.0856   -0.0807    0.0071   -0.0163
          15   -0.0362    0.2191   -0.1375   -0.0562    0.1218   -0.0494    0.1336    0.0259
          16   -0.0022    0.0372   -0.0115    0.0035    0.0037   -0.0510   -0.0008   -0.0681
          17   -0.0572   -0.0122   -0.0141    0.1206    0.0815    0.0792    0.0053    0.0144
          18    0.0312   -0.0579   -0.1909    0.0456   -0.1214   -0.0307    0.1418    0.0159
          19    0.0045   -0.0103   -0.0736   -0.0015    0.0006    0.2758   -0.0031    0.0019
          20   -0.0570   -0.0191   -0.0244    0.1187    0.0877    0.1470    0.0042    0.0323
          21    0.0155    0.3309   -0.1482    0.1164   -0.2763   -0.0836   -0.4674    0.2706
          22   -0.0056    0.0535    0.0085   -0.0039   -0.0028   -0.1659    0.0044   -0.1117
          23   -0.0607    0.0151    0.0239    0.1202    0.0841   -0.1464    0.0046   -0.0362
          24   -0.0437   -0.1737   -0.2439   -0.0910    0.2677   -0.0586   -0.4919    0.2532
          25   -0.0035   -0.0107   -0.0737    0.0021    0.0040    0.2759    0.0035    0.0017
          26   -0.0592    0.0147    0.0232    0.1175    0.0867   -0.1492    0.0059   -0.0311
          27   -0.0545    0.3267   -0.1471   -0.1192    0.2737   -0.0875    0.4683    0.2690
          28   -0.0007    0.0539    0.0084    0.0026    0.0001   -0.1658   -0.0052   -0.1115
          29   -0.0583   -0.0218   -0.0255    0.1213    0.0851    0.1443    0.0071    0.0373
          30    0.0620   -0.1674   -0.2437    0.0890   -0.2698   -0.0549    0.4930    0.2517
          31    0.0019    0.0175   -0.0360    0.0041   -0.0064    0.0511   -0.0006   -0.0406
          32   -0.0704    0.0488    0.0591   -0.0149   -0.0262   -0.0833   -0.0004    0.0161
          33   -0.1099    0.0366    0.1101   -0.0837    0.0873    0.0423    0.0019   -0.1871
          34   -0.0042    0.0171   -0.0361   -0.0043    0.0071    0.0513    0.0005   -0.0406
          35   -0.0644   -0.0564   -0.0577   -0.0141   -0.0249    0.0841   -0.0005   -0.0169
          36    0.1062    0.0495    0.1090    0.0840   -0.0864    0.0426   -0.0027   -0.1874
          37    0.0223    0.0504   -0.1358   -0.1120    0.0191    0.1178   -0.0093   -0.0548
          38   -0.2794    0.1902    0.1703   -0.1286   -0.1423    0.0223    0.0001    0.0214
          39   -0.3398    0.1607    0.2936   -0.1155   -0.0538    0.0979    0.0078   -0.1690
          40   -0.0291    0.0478   -0.1366    0.1111   -0.0176    0.1183    0.0096   -0.0548
          41   -0.2561   -0.2210   -0.1649   -0.1277   -0.1416   -0.0185   -0.0002   -0.0216
          42    0.3232    0.2004    0.2904    0.1169    0.0559    0.0956   -0.0087   -0.1698
          43   -0.0055   -0.0360    0.0771    0.1798   -0.0604   -0.0822    0.0028    0.0523
          44    0.1511   -0.0778   -0.0304   -0.1129   -0.0675    0.0403   -0.0068    0.0457
          45    0.1067   -0.1421    0.1301   -0.0111   -0.0071    0.0359   -0.0000   -0.0701
          46    0.0103   -0.0359    0.0781   -0.1792    0.0590   -0.0824   -0.0027    0.0526
          47    0.1410    0.0932    0.0306   -0.1133   -0.0682   -0.0389   -0.0070   -0.0462
          48   -0.0892   -0.1536    0.1310    0.0135    0.0087    0.0358   -0.0004   -0.0697
          49   -0.0072   -0.0902    0.1833    0.3743   -0.1326   -0.2606    0.0037    0.2221
          50    0.3656   -0.2234   -0.1406    0.0143    0.0700   -0.1267   -0.0072   -0.0587
          51    0.3262   -0.2592   -0.0426    0.0116    0.1726   -0.0383   -0.0011   -0.2699
          52    0.0191   -0.0905    0.1853   -0.3729    0.1282   -0.2612   -0.0030    0.2233
          53    0.3381    0.2630    0.1371    0.0140    0.0710    0.1245   -0.0076    0.0571
          54   -0.2968   -0.2966   -0.0399   -0.0104   -0.1728   -0.0357    0.0005   -0.2702
          55   -0.0054   -0.0358    0.0778    0.1822   -0.0647   -0.0858    0.0030    0.0614
          56    0.1357   -0.0456   -0.0025   -0.3529   -0.2552    0.3648   -0.0139    0.1728
          57    0.0816   -0.1874    0.3276    0.0425   -0.2966    0.0965   -0.0013    0.2805
          58    0.0102   -0.0358    0.0787   -0.1817    0.0631   -0.0861   -0.0028    0.0617
          59    0.1283    0.0571    0.0053   -0.3547   -0.2604   -0.3591   -0.0144   -0.1714
          60   -0.0568   -0.1949    0.3285   -0.0367    0.3007    0.0928    0.0017    0.2823


   Root No.       9        10        11        12        13        14        15        16

                 5 A       6 A       5 B       6 B       7 A       8 A       7 B       9 A   

                   0.3       0.4       0.4       0.6       0.6       0.8       0.9       1.0
  
           1   -0.0397   -0.0539   -0.0267   -0.0276   -0.1593   -0.0590   -0.0659    0.0101
           2   -0.0420   -0.1056    0.0858    0.0167    0.0380   -0.0009    0.0007   -0.0015
           3    0.0083   -0.0154   -0.0622    0.2954   -0.1462    0.2054    0.0345   -0.0040
           4    0.0398    0.0540   -0.0267   -0.0276    0.1593    0.0592   -0.0657   -0.0101
           5   -0.0421   -0.1056   -0.0860   -0.0155    0.0387   -0.0018   -0.0006   -0.0016
           6   -0.0086    0.0156   -0.0622    0.2952    0.1461   -0.2051    0.0337    0.0039
           7   -0.0016    0.0033    0.0190   -0.0430   -0.0143   -0.0058    0.0137    0.0074
           8   -0.0611   -0.1387    0.0591    0.0163   -0.0315   -0.0384    0.0060   -0.0049
           9   -0.0717    0.0013   -0.0294    0.2179   -0.0312    0.0649    0.0570   -0.0015
          10    0.0049    0.0126   -0.0902   -0.0556    0.0085    0.0009    0.0158   -0.0061
          11   -0.0262   -0.0885   -0.0561   -0.0107    0.1245    0.0289   -0.0017    0.0018
          12    0.0645   -0.0022   -0.0307    0.2152    0.0305   -0.0645    0.0570    0.0015
          13    0.0018   -0.0032    0.0190   -0.0429    0.0145    0.0055    0.0137   -0.0075
          14   -0.0608   -0.1388   -0.0591   -0.0156   -0.0313   -0.0387   -0.0059   -0.0050
          15    0.0718   -0.0011   -0.0292    0.2180    0.0313   -0.0647    0.0568    0.0013
          16   -0.0050   -0.0125   -0.0902   -0.0555   -0.0084   -0.0010    0.0158    0.0061
          17   -0.0264   -0.0884    0.0561    0.0113    0.1242    0.0292    0.0019    0.0018
          18   -0.0644    0.0026   -0.0310    0.2152   -0.0308    0.0648    0.0573   -0.0017
          19    0.0071    0.0135    0.1464   -0.0540    0.1324    0.0976    0.3723    0.4177
          20   -0.0590   -0.1408    0.1330    0.0116    0.0549    0.0150    0.2082    0.2299
          21   -0.3378    0.0315    0.0537   -0.2416    0.1129   -0.1047   -0.0415   -0.0012
          22   -0.0220   -0.0336   -0.2585   -0.1426   -0.0923   -0.1430    0.3110   -0.4073
          23   -0.0422   -0.1226   -0.1485   -0.0602    0.0757   -0.0502    0.1644   -0.2290
          24    0.3117   -0.0351    0.0531   -0.2471   -0.1162    0.1042   -0.0344   -0.0055
          25   -0.0068   -0.0130    0.1463   -0.0540   -0.1319   -0.0992    0.3720   -0.4175
          26   -0.0576   -0.1412   -0.1326   -0.0129    0.0543    0.0164   -0.2086    0.2298
          27    0.3385   -0.0309    0.0544   -0.2414   -0.1135    0.1041   -0.0401    0.0004
          28    0.0217    0.0336   -0.2585   -0.1432    0.0920    0.1419    0.3109    0.4076
          29   -0.0434   -0.1223    0.1490    0.0591    0.0764   -0.0502   -0.1646   -0.2292
          30   -0.3107    0.0364    0.0510   -0.2479    0.1157   -0.1042   -0.0341    0.0063
          31    0.0501    0.0726   -0.0209   -0.0219    0.2084    0.0916   -0.1215   -0.0490
          32    0.0343    0.1031    0.1027    0.0611   -0.0546   -0.0608    0.0464    0.0194
          33   -0.1342    0.0157   -0.0349   -0.0033    0.1247   -0.0619   -0.0498   -0.0157
          34   -0.0500   -0.0725   -0.0208   -0.0218   -0.2085   -0.0910   -0.1217    0.0489
          35    0.0350    0.1031   -0.1031   -0.0610   -0.0554   -0.0603   -0.0468    0.0195
          36    0.1338   -0.0163   -0.0343   -0.0027   -0.1245    0.0626   -0.0493    0.0156
          37    0.1366    0.2047    0.0409    0.2189    0.4105   -0.3111   -0.2100   -0.0149
          38    0.0283    0.3199    0.3310    0.0365   -0.1289   -0.0699    0.0352    0.0371
          39   -0.1904    0.1603    0.1577   -0.1748   -0.0539    0.1931   -0.0305   -0.0319
          40   -0.1367   -0.2047    0.0414    0.2182   -0.4102    0.3116   -0.2083    0.0157
          41    0.0291    0.3192   -0.3308   -0.0367   -0.1290   -0.0704   -0.0356    0.0371
          42    0.1903   -0.1616    0.1592   -0.1745    0.0544   -0.1925   -0.0313    0.0314
          43    0.0965    0.0726    0.0085   -0.0303    0.1494    0.1744   -0.1420   -0.0772
          44    0.0534    0.0711    0.0775    0.0480   -0.0478   -0.0606    0.0518    0.0277
          45   -0.0791   -0.0281   -0.0412   -0.0340    0.0619    0.0130   -0.0503   -0.0267
          46   -0.0964   -0.0727    0.0086   -0.0300   -0.1496   -0.1736   -0.1428    0.0768
          47    0.0538    0.0711   -0.0777   -0.0479   -0.0483   -0.0602   -0.0523    0.0277
          48    0.0787    0.0278   -0.0408   -0.0336   -0.0617   -0.0125   -0.0503    0.0265
          49    0.2559    0.1845    0.1660    0.1756   -0.0278    0.0195   -0.0130   -0.0419
          50   -0.0125    0.2838    0.2969    0.0239   -0.1836   -0.0311    0.1023    0.0399
          51   -0.2311    0.1289    0.0918   -0.1637    0.0405    0.1242   -0.0921   -0.0423
          52   -0.2560   -0.1849    0.1664    0.1755    0.0277   -0.0194   -0.0135    0.0415
          53   -0.0108    0.2827   -0.2965   -0.0240   -0.1842   -0.0306   -0.1028    0.0399
          54    0.2305   -0.1296    0.0930   -0.1637   -0.0396   -0.1240   -0.0922    0.0422
          55    0.1103    0.0829    0.0149   -0.0193    0.1629    0.1869   -0.1600   -0.0876
          56    0.1259   -0.1813   -0.1777   -0.0309    0.1536    0.2670   -0.1430   -0.1203
          57    0.1528   -0.2283   -0.1588    0.1357   -0.0856   -0.2791    0.1498    0.1179
          58   -0.1103   -0.0831    0.0151   -0.0190   -0.1632   -0.1859   -0.1608    0.0872
          59    0.1245   -0.1803    0.1770    0.0311    0.1542    0.2673    0.1450   -0.1201
          60   -0.1530    0.2284   -0.1592    0.1355    0.0851    0.2768    0.1501   -0.1167


   Root No.      17        18        19        20        21        22        23        24

                 8 B      10 A      11 A       9 B      10 B      11 B      12 B      13 B   

                   1.0       1.0       1.2       1.4       1.5       1.6       1.6       1.7
  
           1    0.0034   -0.0019    0.0407   -0.0060   -0.0825    0.0007    0.0676   -0.0377
           2    0.0178   -0.0522   -0.0298    0.0946   -0.0229    0.0095   -0.0716   -0.0607
           3   -0.0822    0.0683   -0.3006    0.0125    0.0409   -0.0087    0.0453   -0.0109
           4    0.0033    0.0019   -0.0406   -0.0060   -0.0825    0.0006    0.0677   -0.0375
           5   -0.0179   -0.0527   -0.0282   -0.0946    0.0232   -0.0093    0.0716    0.0607
           6   -0.0811   -0.0688    0.3009    0.0133    0.0410   -0.0085    0.0450   -0.0114
           7   -0.0117    0.0019    0.0080   -0.2300   -0.1053   -0.0043    0.1335   -0.1323
           8    0.0120   -0.1018   -0.0340    0.1999    0.0093    0.0089   -0.1066    0.0147
           9   -0.1432    0.0238   -0.1225   -0.0400   -0.1675   -0.4068   -0.1369    0.0463
          10    0.0138    0.0027    0.0016    0.2147   -0.1804   -0.0074    0.1306   -0.0751
          11   -0.0131   -0.1004   -0.0789   -0.1952    0.0908   -0.0021    0.0055    0.0760
          12   -0.1350   -0.0236    0.1222   -0.0241   -0.0944    0.4551   -0.0273    0.0381
          13   -0.0118   -0.0022   -0.0075   -0.2300   -0.1053   -0.0041    0.1335   -0.1323
          14   -0.0119   -0.1020   -0.0331   -0.2001   -0.0100   -0.0108    0.1059   -0.0148
          15   -0.1428   -0.0249    0.1233   -0.0390   -0.1672   -0.4067   -0.1375    0.0464
          16    0.0137   -0.0028   -0.0016    0.2147   -0.1804   -0.0072    0.1305   -0.0751
          17    0.0131   -0.1002   -0.0797    0.1952   -0.0911    0.0039   -0.0056   -0.0759
          18   -0.1355    0.0229   -0.1216   -0.0251   -0.0937    0.4550   -0.0278    0.0389
          19   -0.0746    0.4526    0.0930   -0.1758    0.0911   -0.0174    0.1121    0.0935
          20   -0.0188    0.1342    0.0042    0.3361    0.1508    0.0095   -0.1990    0.1842
          21    0.0824   -0.0316    0.0980    0.0200    0.0777    0.2319    0.0634   -0.0199
          22    0.0633    0.4648    0.0587    0.1848   -0.0062    0.0170   -0.1533   -0.0989
          23    0.0126    0.1438   -0.0702   -0.3122    0.2677    0.0055   -0.1839    0.1217
          24    0.0755    0.0326   -0.0994    0.0135    0.0328   -0.2519    0.0043   -0.0161
          25   -0.0705   -0.4531   -0.0928   -0.1759    0.0915   -0.0171    0.1121    0.0934
          26    0.0177    0.1344    0.0045   -0.3361   -0.1505   -0.0085    0.1991   -0.1847
          27    0.0822    0.0320   -0.0989    0.0216    0.0782    0.2319    0.0626   -0.0191
          28    0.0660   -0.4643   -0.0596    0.1849   -0.0059    0.0170   -0.1534   -0.0988
          29   -0.0131    0.1435   -0.0695    0.3123   -0.2676   -0.0070    0.1840   -0.1218
          30    0.0757   -0.0326    0.1003    0.0121    0.0338   -0.2517    0.0038   -0.0158
          31   -0.0195    0.0023   -0.0416   -0.0033   -0.0450   -0.0002    0.0215    0.0074
          32   -0.0244   -0.0437    0.1010    0.0716    0.0545   -0.0353    0.2501    0.2093
          33    0.0235   -0.0436    0.1568    0.0883    0.2316   -0.0485    0.2158   -0.0150
          34   -0.0195   -0.0024    0.0416   -0.0032   -0.0450   -0.0002    0.0213    0.0072
          35    0.0249   -0.0433    0.1003   -0.0709   -0.0533    0.0352   -0.2493   -0.2080
          36    0.0228    0.0441   -0.1574    0.0881    0.2315   -0.0490    0.2175   -0.0150
          37    0.4234    0.0194   -0.1918   -0.0226    0.2175   -0.0059   -0.1462   -0.0499
          38    0.1211    0.0379   -0.1709   -0.0759   -0.1035    0.0267   -0.1357    0.1093
          39   -0.1136    0.0308   -0.0060   -0.0392   -0.0483    0.0165   -0.0983   -0.1883
          40    0.4245   -0.0160    0.1911   -0.0226    0.2175   -0.0059   -0.1457   -0.0495
          41   -0.1223    0.0370   -0.1710    0.0752    0.1030   -0.0268    0.1354   -0.1105
          42   -0.1133   -0.0318    0.0072   -0.0393   -0.0486    0.0166   -0.0991   -0.1870
          43   -0.0986    0.0029   -0.0786   -0.0001   -0.0584    0.0150   -0.0528    0.2341
          44    0.0098   -0.0214    0.0670    0.0450    0.0325   -0.0329    0.2426    0.1010
          45   -0.0067   -0.0183    0.0722    0.0666    0.1850   -0.0338    0.1352    0.0785
          46   -0.0989   -0.0035    0.0786    0.0000   -0.0583    0.0152   -0.0530    0.2340
          47   -0.0096   -0.0213    0.0668   -0.0445   -0.0316    0.0329   -0.2420   -0.0993
          48   -0.0072    0.0186   -0.0727    0.0665    0.1850   -0.0342    0.1367    0.0780
          49   -0.1928   -0.0169    0.3236    0.0393    0.2522   -0.0180   -0.0417   -0.2707
          50   -0.0208    0.0171    0.0464   -0.0442   -0.0845    0.0112   -0.0223   -0.1835
          51    0.0262    0.0334   -0.1809   -0.0392   -0.0538    0.0290   -0.1929    0.0894
          52   -0.1938    0.0152   -0.3230    0.0389    0.2520   -0.0184   -0.0413   -0.2702
          53    0.0209    0.0174    0.0473    0.0438    0.0840   -0.0110    0.0217    0.1834
          54    0.0261   -0.0330    0.1803   -0.0390   -0.0539    0.0293   -0.1933    0.0894
          55   -0.1097    0.0038   -0.0954   -0.0009   -0.0833    0.0201   -0.0714    0.3293
          56   -0.2943   -0.0142    0.1636   -0.0007    0.1096    0.0120   -0.1587   -0.0802
          57    0.2734    0.0149   -0.1988   -0.0590   -0.2055    0.0171   -0.0076   -0.0033
          58   -0.1100   -0.0044    0.0954   -0.0007   -0.0833    0.0204   -0.0717    0.3291
          59    0.2964   -0.0124    0.1641    0.0005   -0.1106   -0.0117    0.1585    0.0792
          60    0.2727   -0.0132    0.1976   -0.0584   -0.2047    0.0174   -0.0088   -0.0032


   Root No.      25        26        27        28        29        30        31        32

                12 A      13 A      14 A      14 B      15 B      15 A      16 A      17 A   

                   1.8       2.1       2.2       2.8       3.0       3.2       3.6       3.7
  
           1   -0.0295    0.0487   -0.1865    0.1677    0.0103   -0.0783   -0.0036   -0.0013
           2   -0.0193   -0.0006   -0.0004    0.0120    0.1820   -0.0030    0.0004   -0.0286
           3   -0.0002    0.3074    0.0642    0.0393   -0.2407    0.0123   -0.0002   -0.0143
           4    0.0297   -0.0487    0.1865    0.1677    0.0103    0.0784    0.0039    0.0014
           5   -0.0196   -0.0022   -0.0006   -0.0118   -0.1830   -0.0030    0.0011   -0.0284
           6    0.0002   -0.3073   -0.0641    0.0392   -0.2396   -0.0129   -0.0009    0.0141
           7    0.0133    0.0014    0.0098   -0.0167    0.1477   -0.0432   -0.0000   -0.0157
           8   -0.0801    0.0583   -0.1852    0.1201    0.0921    0.0887    0.0038    0.0078
           9    0.0038    0.1990    0.0477   -0.0233    0.1430    0.0078    0.4852   -0.1427
          10    0.0139    0.0027   -0.0113   -0.0359   -0.1478    0.0396   -0.0021   -0.0173
          11   -0.0379   -0.0306    0.1988    0.1085   -0.0804   -0.0829   -0.0004    0.0112
          12   -0.0031   -0.2014   -0.0449   -0.0260    0.1428   -0.0342    0.4760    0.1633
          13   -0.0127   -0.0007   -0.0098   -0.0167    0.1476    0.0432   -0.0003    0.0156
          14   -0.0800    0.0577   -0.1853   -0.1202   -0.0916    0.0886    0.0016    0.0085
          15   -0.0033   -0.1992   -0.0473   -0.0228    0.1436   -0.0080   -0.4846    0.1428
          16   -0.0137   -0.0028    0.0115   -0.0360   -0.1478   -0.0395    0.0029    0.0177
          17   -0.0376   -0.0294    0.1989   -0.1088    0.0813   -0.0828   -0.0033    0.0103
          18    0.0032    0.2011    0.0444   -0.0256    0.1424    0.0352   -0.4755   -0.1632
          19    0.0489   -0.0308    0.1059   -0.1481   -0.1228   -0.1424   -0.0052   -0.0244
          20   -0.1017    0.0785   -0.2754    0.2032   -0.0537    0.2557    0.0066    0.0584
          21    0.0008   -0.0798   -0.0166    0.0070   -0.0446   -0.0017   -0.1387    0.0291
          22    0.0409    0.0095   -0.1153   -0.1306    0.1110    0.1345    0.0056   -0.0259
          23   -0.0444   -0.0430    0.2957    0.2113    0.0686   -0.2369   -0.0100    0.0599
          24    0.0006    0.0810    0.0154    0.0065   -0.0442    0.0121   -0.1367   -0.0353
          25   -0.0493    0.0310   -0.1060   -0.1482   -0.1232    0.1422    0.0052    0.0243
          26   -0.1008    0.0801   -0.2751   -0.2030    0.0529    0.2557    0.0062    0.0579
          27   -0.0002    0.0795    0.0174    0.0079   -0.0449   -0.0001    0.1384   -0.0294
          28   -0.0406   -0.0093    0.1154   -0.1308    0.1111   -0.1343   -0.0064    0.0257
          29   -0.0440   -0.0430    0.2955   -0.2115   -0.0684   -0.2369   -0.0100    0.0599
          30   -0.0007   -0.0806   -0.0161    0.0075   -0.0439   -0.0106    0.1366    0.0349
          31    0.0349   -0.0556    0.1434    0.2358    0.0102    0.2079    0.0015   -0.0021
          32    0.3205    0.0324   -0.0248   -0.0161   -0.1260   -0.0322    0.0056   -0.3172
          33    0.1123    0.2073    0.0553    0.0308   -0.1197    0.0288    0.0083   -0.3302
          34   -0.0348    0.0557   -0.1433    0.2357    0.0103   -0.2079   -0.0015    0.0021
          35    0.3209    0.0316   -0.0249    0.0163    0.1255   -0.0324    0.0057   -0.3155
          36   -0.1139   -0.2072   -0.0551    0.0307   -0.1202   -0.0287   -0.0084    0.3315
          37   -0.1693    0.1980   -0.0611   -0.0224    0.0121    0.0519    0.0026    0.0035
          38    0.0011   -0.0872   -0.1709   -0.2294    0.0195   -0.2441   -0.0087    0.0718
          39   -0.1888   -0.0132    0.1501    0.2143    0.0536    0.2344    0.0046    0.0911
          40    0.1695   -0.1982    0.0613   -0.0224    0.0120   -0.0518   -0.0024   -0.0034
          41    0.0024   -0.0867   -0.1716    0.2303   -0.0191   -0.2455   -0.0090    0.0714
          42    0.1894    0.0138   -0.1489    0.2134    0.0538   -0.2330   -0.0047   -0.0915
          43    0.1541   -0.1080   -0.0970    0.0080   -0.0035    0.0268    0.0015    0.0012
          44    0.2780    0.1262    0.1084    0.1037    0.3135    0.1087   -0.0037    0.3056
          45    0.1667    0.2714   -0.0443   -0.1300    0.3134   -0.0883   -0.0076    0.3125
          46   -0.1549    0.1076    0.0968    0.0080   -0.0035   -0.0269   -0.0016   -0.0011
          47    0.2776    0.1246    0.1091   -0.1043   -0.3122    0.1088   -0.0036    0.3041
          48   -0.1683   -0.2720    0.0433   -0.1294    0.3150    0.0880    0.0079   -0.3136
          49   -0.2348    0.1643   -0.0127   -0.1172   -0.0007   -0.1189   -0.0033    0.0023
          50   -0.1388   -0.1092    0.1547    0.2278   -0.0812    0.2170    0.0080   -0.0870
          51   -0.0773   -0.0519   -0.1763   -0.2161   -0.0985   -0.2184   -0.0046   -0.0754
          52    0.2358   -0.1644    0.0129   -0.1172   -0.0007    0.1189    0.0038   -0.0022
          53   -0.1394   -0.1093    0.1555   -0.2287    0.0808    0.2183    0.0085   -0.0866
          54    0.0777    0.0520    0.1753   -0.2151   -0.0990    0.2171    0.0051    0.0759
          55    0.2246   -0.1870   -0.1456    0.0596   -0.0163    0.1169    0.0037   -0.0085
          56   -0.1783   -0.0247   -0.1009   -0.0867   -0.1113   -0.0707    0.0006   -0.0819
          57   -0.0236   -0.1560    0.0730    0.0960   -0.1059    0.0630    0.0024   -0.0834
          58   -0.2259    0.1865    0.1452    0.0597   -0.0161   -0.1172   -0.0045    0.0083
          59   -0.1784   -0.0238   -0.1014    0.0872    0.1110   -0.0711    0.0006   -0.0815
          60    0.0245    0.1562   -0.0724    0.0957   -0.1065   -0.0629   -0.0025    0.0838


   Root No.      33        34        35        36        37        38        39        40

                16 B      17 B      18 B      18 A      19 A      20 A      19 B      21 A   

                   3.8       4.4       4.6       5.3       5.6       6.4       7.5       8.1
  
           1   -0.0465   -0.0274   -0.2386    0.0690   -0.2904   -0.0408    0.0154    0.1642
           2    0.2550   -0.1422   -0.0167   -0.0091    0.0331   -0.3047   -0.0222   -0.0287
           3    0.3590    0.3263   -0.0948   -0.4066   -0.1187   -0.0014   -0.0473   -0.0536
           4   -0.0463   -0.0275   -0.2387   -0.0687    0.2902    0.0410    0.0152   -0.1641
           5   -0.2537    0.1435    0.0164   -0.0074    0.0336   -0.3048    0.0218   -0.0284
           6    0.3604    0.3257   -0.0942    0.4066    0.1187    0.0026   -0.0477    0.0538
           7    0.2128   -0.1497   -0.1802    0.0086   -0.0481   -0.0659    0.1748    0.0300
           8    0.1137   -0.0904   -0.1109    0.0141   -0.0736   -0.2361   -0.0246    0.0626
           9   -0.1608   -0.1293    0.0339    0.3594    0.0850    0.0031    0.0145    0.0182
          10   -0.2444    0.1135   -0.1422   -0.0158    0.0564   -0.0512    0.2246   -0.0159
          11   -0.1580    0.0656   -0.0889   -0.0230    0.0969   -0.2033    0.0146   -0.1424
          12   -0.1615   -0.1287    0.0337   -0.3611   -0.0835   -0.0008    0.0136   -0.0166
          13    0.2127   -0.1498   -0.1802   -0.0083    0.0481    0.0659    0.1749   -0.0303
          14   -0.1144    0.0898    0.1111    0.0122   -0.0740   -0.2362    0.0246    0.0625
          15   -0.1614   -0.1301    0.0324   -0.3595   -0.0846   -0.0018    0.0145   -0.0185
          16   -0.2446    0.1134   -0.1420    0.0160   -0.0565    0.0510    0.2247    0.0156
          17    0.1575   -0.0662    0.0890   -0.0215    0.0973   -0.2032   -0.0148   -0.1424
          18   -0.1641   -0.1283    0.0325    0.3613    0.0826    0.0018    0.0141    0.0173
          19   -0.1016    0.0727    0.1542    0.0166   -0.0752   -0.1741   -0.0848    0.0257
          20   -0.0938    0.0146   -0.1549   -0.0213    0.1016    0.3558    0.1088   -0.0327
          21    0.0463    0.0355   -0.0083   -0.0588   -0.0135   -0.0012   -0.0043   -0.0031
          22    0.1592   -0.0378    0.1356   -0.0305    0.1062   -0.1509   -0.0931   -0.0617
          23    0.0287   -0.0523   -0.1564    0.0504   -0.1695    0.3209    0.0981    0.0994
          24    0.0474    0.0354   -0.0081    0.0589    0.0145   -0.0022   -0.0043    0.0020
          25   -0.1015    0.0728    0.1543   -0.0168    0.0753    0.1742   -0.0848   -0.0256
          26    0.0942   -0.0142    0.1549   -0.0211    0.1017    0.3559   -0.1087   -0.0325
          27    0.0462    0.0357   -0.0088    0.0589    0.0134   -0.0003   -0.0038    0.0032
          28    0.1593   -0.0377    0.1357    0.0303   -0.1062    0.1509   -0.0931    0.0618
          29   -0.0285    0.0526    0.1565    0.0499   -0.1695    0.3209   -0.0980    0.0995
          30    0.0481    0.0352   -0.0086   -0.0590   -0.0141    0.0006   -0.0039   -0.0024
          31   -0.0279   -0.0126   -0.0886   -0.0640    0.2642    0.0354   -0.2193   -0.0310
          32    0.0585   -0.3009    0.0003   -0.1220    0.0104    0.0383   -0.1858    0.2681
          33    0.0183   -0.3134    0.0577   -0.0954   -0.0715    0.0754    0.1616   -0.2416
          34   -0.0282   -0.0125   -0.0886    0.0642   -0.2643   -0.0352   -0.2194    0.0313
          35   -0.0587    0.2995   -0.0004   -0.1217    0.0110    0.0379    0.1868    0.2692
          36    0.0188   -0.3148    0.0581    0.0962    0.0712   -0.0756    0.1608    0.2404
          37   -0.1027    0.0062    0.1687   -0.0159   -0.1405   -0.0572   -0.0363    0.1232
          38    0.0641    0.0464   -0.1964    0.0356    0.1136    0.0435    0.1341   -0.2360
          39   -0.0769    0.0899    0.1752    0.0098   -0.0974   -0.0628   -0.1261    0.2242
          40   -0.1027    0.0062    0.1687    0.0156    0.1406    0.0572   -0.0363   -0.1233
          41   -0.0647   -0.0462    0.1973    0.0353    0.1143    0.0439   -0.1348   -0.2371
          42   -0.0768    0.0900    0.1744   -0.0101    0.0968    0.0626   -0.1255   -0.2232
          43    0.0300    0.0031   -0.0005   -0.0212    0.0748   -0.0089   -0.1889    0.1111
          44   -0.0104    0.1878   -0.0196    0.0352    0.0831   -0.0181   -0.1829    0.2015
          45   -0.0460    0.1872   -0.0099    0.0646   -0.0609   -0.0243    0.1871   -0.2025
          46    0.0299    0.0031   -0.0005    0.0212   -0.0748    0.0089   -0.1890   -0.1110
          47    0.0105   -0.1869    0.0197    0.0350    0.0833   -0.0180    0.1839    0.2025
          48   -0.0460    0.1880   -0.0100   -0.0649    0.0607    0.0243    0.1865    0.2015
          49   -0.0392   -0.0116   -0.1004   -0.0243    0.0830    0.0052   -0.0553    0.0552
          50    0.0446   -0.0318    0.1834    0.0356   -0.1681    0.0044    0.1668   -0.1777
          51   -0.0298   -0.0648   -0.1720   -0.0614    0.1591    0.0080   -0.1655    0.1762
          52   -0.0391   -0.0114   -0.1002    0.0244   -0.0830   -0.0052   -0.0554   -0.0552
          53   -0.0444    0.0317   -0.1840    0.0360   -0.1690    0.0044   -0.1676   -0.1784
          54   -0.0291   -0.0648   -0.1708    0.0613   -0.1581   -0.0079   -0.1648   -0.1753
          55    0.1606    0.0436    0.2919    0.1287   -0.3378    0.0084    0.2629   -0.1245
          56    0.0132   -0.0343    0.0087    0.0038   -0.0281   -0.0008    0.0275   -0.0145
          57    0.0038   -0.0372   -0.0063   -0.0145    0.0297    0.0013   -0.0300    0.0157
          58    0.1602    0.0433    0.2917   -0.1290    0.3379   -0.0086    0.2631    0.1244
          59   -0.0133    0.0341   -0.0088    0.0039   -0.0282   -0.0008   -0.0277   -0.0146
          60    0.0041   -0.0373   -0.0060    0.0145   -0.0295   -0.0013   -0.0298   -0.0156


   Root No.      41        42        43        44        45        46        47        48

                20 B      21 B      22 A      22 B      23 A      24 A      23 B      25 A   

                   8.5       8.9       9.6       9.8      10.9      11.3      12.0      15.8
  
           1    0.0078    0.0980   -0.1016   -0.1046    0.1478   -0.0024    0.2524   -0.4526
           2   -0.1928    0.0096   -0.0217    0.0113   -0.0325    0.4240    0.0014    0.0162
           3   -0.0069   -0.0210    0.0229    0.0334    0.0224    0.0109    0.0125   -0.0043
           4    0.0078    0.0981    0.1015   -0.1047   -0.1480    0.0034    0.2523    0.4527
           5    0.1928   -0.0093   -0.0219   -0.0118   -0.0325    0.4238   -0.0038    0.0162
           6   -0.0078   -0.0209   -0.0229    0.0335   -0.0222   -0.0125    0.0124    0.0041
           7    0.2308   -0.2359    0.0122    0.1081    0.0013   -0.3448   -0.0360   -0.1604
           8   -0.2510    0.0983   -0.0759   -0.0641    0.3243   -0.1788    0.3613    0.2440
           9    0.0025    0.0081   -0.0032   -0.0060   -0.0026   -0.0000   -0.0021   -0.0009
          10   -0.2749   -0.1420    0.0274    0.0928    0.0318   -0.3357   -0.0521    0.2294
          11    0.2611    0.0528    0.1326   -0.1090   -0.2571   -0.2235    0.3503   -0.2744
          12   -0.0006    0.0071    0.0033   -0.0061    0.0085   -0.0007   -0.0061    0.0008
          13    0.2308   -0.2357   -0.0123    0.1076   -0.0013    0.3451   -0.0378    0.1604
          14    0.2509   -0.0984   -0.0759    0.0645    0.3246   -0.1808   -0.3599    0.2441
          15    0.0012    0.0085    0.0036   -0.0063    0.0013    0.0007   -0.0005   -0.0001
          16   -0.2749   -0.1418   -0.0273    0.0924   -0.0318    0.3358   -0.0540   -0.2294
          17   -0.2612   -0.0528    0.1328    0.1091   -0.2567   -0.2253   -0.3493   -0.2743
          18    0.0007    0.0070   -0.0039   -0.0065   -0.0074    0.0011   -0.0045    0.0004
          19   -0.1396    0.0965   -0.0272   -0.0413    0.0828   -0.0119    0.0525    0.0392
          20    0.2639   -0.1339    0.0424    0.0563   -0.1281   -0.0176   -0.1207   -0.0735
          21   -0.0016   -0.0013    0.0006    0.0015    0.0010    0.0005    0.0010    0.0006
          22    0.1581    0.0581    0.0400   -0.0457   -0.0693   -0.0231    0.0542   -0.0480
          23   -0.2866   -0.0729   -0.0604    0.0752    0.1119    0.0011   -0.1204    0.0850
          24    0.0016   -0.0012   -0.0002    0.0011   -0.0020    0.0003    0.0014   -0.0004
          25   -0.1397    0.0965    0.0272   -0.0413   -0.0828    0.0121    0.0524   -0.0392
          26   -0.2638    0.1338    0.0424   -0.0563   -0.1281   -0.0170    0.1207   -0.0735
          27   -0.0004   -0.0019   -0.0007    0.0017   -0.0003   -0.0004    0.0005   -0.0002
          28    0.1582    0.0581   -0.0401   -0.0457    0.0692    0.0234    0.0541    0.0481
          29    0.2867    0.0728   -0.0605   -0.0751    0.1118    0.0017    0.1204    0.0850
          30    0.0003   -0.0015    0.0003    0.0014    0.0013   -0.0001    0.0009   -0.0000
          31    0.0283    0.2729   -0.0510   -0.1594    0.3942    0.0162   -0.3143   -0.2024
          32   -0.0207   -0.2079   -0.0099    0.1131   -0.1588   -0.0213    0.1141    0.0728
          33    0.0231    0.1861    0.0109   -0.1037    0.1491    0.0128   -0.1052   -0.0724
          34    0.0283    0.2727    0.0509   -0.1595   -0.3940   -0.0183   -0.3145    0.2024
          35    0.0208    0.2084   -0.0099   -0.1134   -0.1593   -0.0223   -0.1146    0.0731
          36    0.0229    0.1850   -0.0109   -0.1033   -0.1483   -0.0136   -0.1047    0.0720
          37   -0.0042   -0.1175   -0.0114    0.0684   -0.0825    0.0082    0.0460    0.0091
          38    0.0216    0.1931   -0.0206   -0.0616    0.0975    0.0065   -0.0580   -0.0188
          39   -0.0181   -0.1847    0.0197    0.0585   -0.0954    0.0002    0.0572    0.0201
          40   -0.0042   -0.1175    0.0114    0.0684    0.0825   -0.0079    0.0462   -0.0091
          41   -0.0216   -0.1938   -0.0207    0.0618    0.0979    0.0069    0.0583   -0.0188
          42   -0.0180   -0.1837   -0.0196    0.0582    0.0949    0.0004    0.0570   -0.0201
          43    0.0327    0.1530   -0.4767    0.4485   -0.0974   -0.0447    0.0051   -0.0578
          44   -0.0185   -0.1506    0.1861   -0.1773    0.1021    0.0247   -0.0773   -0.0669
          45    0.0225    0.1485   -0.1804    0.1703   -0.0970   -0.0172    0.0727    0.0645
          46    0.0328    0.1530    0.4771    0.4481    0.0974    0.0452    0.0050    0.0577
          47    0.0187    0.1512    0.1871    0.1778    0.1023    0.0253    0.0777   -0.0671
          48    0.0225    0.1476    0.1798    0.1693    0.0964    0.0178    0.0722   -0.0641
          49   -0.0115   -0.0603    0.1114   -0.1065    0.0411    0.0089   -0.0206   -0.0071
          50    0.0217    0.1446   -0.1643    0.1386   -0.0414   -0.0130    0.0209    0.0090
          51   -0.0229   -0.1435    0.1623   -0.1360    0.0401    0.0111   -0.0198   -0.0085
          52   -0.0116   -0.0603   -0.1115   -0.1065   -0.0410   -0.0092   -0.0206    0.0071
          53   -0.0219   -0.1451   -0.1652   -0.1391   -0.0415   -0.0132   -0.0210    0.0090
          54   -0.0228   -0.1428   -0.1616   -0.1354   -0.0398   -0.0113   -0.0197    0.0084
          55   -0.0273   -0.1229    0.3037   -0.2595    0.0250    0.0202    0.0148    0.0235
          56    0.0004   -0.0016   -0.0083    0.0153   -0.0182   -0.0006    0.0127    0.0065
          57    0.0010    0.0023    0.0054   -0.0127    0.0171    0.0034   -0.0126   -0.0064
          58   -0.0275   -0.1229   -0.3038   -0.2592   -0.0250   -0.0204    0.0149   -0.0234
          59   -0.0004    0.0016   -0.0083   -0.0153   -0.0183   -0.0008   -0.0128    0.0066
          60    0.0010    0.0022   -0.0053   -0.0127   -0.0170   -0.0033   -0.0125    0.0064


   Root No.      49        50        51        52        53        54

                26 A      24 B      25 B      27 A      26 B      28 A   

                  16.7      17.2      20.3      20.7      25.0      25.1
  
           1   -0.0327    0.4988   -0.0142   -0.2485   -0.0623   -0.0566
           2   -0.3596   -0.0124   -0.5308   -0.0060    0.0086    0.0100
           3   -0.0071    0.0027   -0.0064   -0.0001    0.0080    0.0079
           4    0.0316    0.4989   -0.0139    0.2482   -0.0627    0.0564
           5   -0.3595    0.0120    0.5308   -0.0065   -0.0087    0.0100
           6    0.0086    0.0028   -0.0089    0.0001    0.0081   -0.0079
           7   -0.3785   -0.1551    0.1300    0.4487    0.0069   -0.0062
           8    0.2337   -0.2722    0.3107    0.1175    0.0006    0.0002
           9    0.0014    0.0011    0.0001   -0.0023   -0.0039   -0.0024
          10   -0.3367   -0.1656   -0.1220   -0.4574   -0.0050    0.0360
          11    0.2063   -0.2917   -0.2973   -0.1110    0.0034   -0.0026
          12   -0.0050   -0.0007    0.0023   -0.0035   -0.0015    0.0000
          13    0.3788   -0.1545    0.1295   -0.4487    0.0068    0.0062
          14    0.2332    0.2726   -0.3107    0.1176   -0.0006    0.0001
          15   -0.0025   -0.0002    0.0016    0.0018   -0.0039    0.0022
          16    0.3369   -0.1645   -0.1216    0.4576   -0.0048   -0.0361
          17    0.2058    0.2921    0.2972   -0.1114   -0.0034   -0.0025
          18    0.0041   -0.0022    0.0010    0.0039   -0.0015    0.0001
          19    0.0526    0.0041    0.0058   -0.0095   -0.0004    0.0001
          20   -0.0635    0.0376   -0.0161    0.0074   -0.0001   -0.0009
          21    0.0004   -0.0004   -0.0000    0.0001    0.0005    0.0003
          22    0.0476    0.0038   -0.0061    0.0106    0.0001   -0.0010
          23   -0.0541    0.0390    0.0147   -0.0084   -0.0012    0.0025
          24    0.0007    0.0002   -0.0002    0.0003    0.0005   -0.0002
          25   -0.0526    0.0040    0.0058    0.0095   -0.0004   -0.0001
          26   -0.0634   -0.0377    0.0161    0.0074    0.0001   -0.0009
          27   -0.0001   -0.0002   -0.0001   -0.0001    0.0006   -0.0005
          28   -0.0477    0.0037   -0.0061   -0.0106    0.0001    0.0010
          29   -0.0541   -0.0392   -0.0147   -0.0084    0.0012    0.0025
          30   -0.0004    0.0004   -0.0001   -0.0003    0.0005    0.0004
          31   -0.0365   -0.1492    0.0103   -0.0322    0.3020   -0.2999
          32    0.0398    0.0572   -0.0197    0.0024    0.2945   -0.2930
          33    0.0039   -0.0546   -0.0019   -0.0015   -0.2828    0.2813
          34    0.0369   -0.1492    0.0104    0.0323    0.3003    0.3015
          35    0.0400   -0.0574    0.0198    0.0024   -0.2942   -0.2959
          36   -0.0040   -0.0543   -0.0020    0.0015   -0.2800   -0.2814
          37   -0.0041    0.0014    0.0082   -0.0038    0.0107   -0.0106
          38   -0.0073   -0.0097    0.0025    0.0022   -0.0200    0.0200
          39    0.0022    0.0115    0.0021   -0.0005    0.0174   -0.0172
          40    0.0041    0.0014    0.0082    0.0037    0.0107    0.0107
          41   -0.0073    0.0097   -0.0025    0.0022    0.0200    0.0201
          42   -0.0022    0.0114    0.0021    0.0005    0.0172    0.0173
          43    0.0245   -0.0518   -0.0156   -0.0061   -0.2729    0.2713
          44    0.0062   -0.0544    0.0010   -0.0045   -0.2874    0.2856
          45   -0.0119    0.0513    0.0042    0.0022    0.2841   -0.2823
          46   -0.0244   -0.0518   -0.0156    0.0061   -0.2714   -0.2727
          47    0.0061    0.0547   -0.0011   -0.0045    0.2872    0.2885
          48    0.0117    0.0510    0.0041   -0.0022    0.2812    0.2824
          49   -0.0009   -0.0044    0.0005    0.0002   -0.0107    0.0107
          50   -0.0005    0.0061   -0.0013    0.0001    0.0217   -0.0218
          51    0.0033   -0.0056   -0.0010    0.0001   -0.0216    0.0215
          52    0.0010   -0.0044    0.0005   -0.0002   -0.0107   -0.0108
          53   -0.0005   -0.0061    0.0013    0.0001   -0.0217   -0.0219
          54   -0.0033   -0.0055   -0.0011   -0.0000   -0.0215   -0.0217
          55   -0.0054    0.0171    0.0029    0.0019    0.0320   -0.0319
          56   -0.0007    0.0044    0.0010    0.0007   -0.0000   -0.0000
          57   -0.0025   -0.0044    0.0021   -0.0006   -0.0006    0.0007
          58    0.0054    0.0171    0.0029   -0.0019    0.0318    0.0320
          59   -0.0007   -0.0045   -0.0010    0.0006   -0.0000    0.0000
          60    0.0025   -0.0043    0.0021    0.0006   -0.0007   -0.0007


          FORCE CONSTANTS IN MILLIDYNES/ANGSTROM (= 10**5 DYNES/CM)

   0.00375   0.00515   0.01699   0.05452   0.09824   0.12160   0.14947   0.21817
   0.27884   0.37240   0.41659   0.55106   0.61267   0.84894   0.88456   0.96248
   0.98330   0.99515   1.24858   1.41422   1.53950   1.56778   1.61205   1.73741
   1.80840   2.06473   2.20160   2.81394   3.01515   3.17130   3.55838   3.71594
   3.76736   4.43017   4.64527   5.26587   5.61652   6.36811   7.50593   8.12748
   8.48466   8.90697   9.58070   9.82023  10.88604  11.34106  12.00394  15.77279
  16.73506  17.20878  20.30228  20.72058  25.04623  25.06232


           ASSOCIATED EIGENVECTORS




    ROOT NO.    1           2           3           4           5           6

             0.00375     0.00515     0.01699     0.05452     0.09824     0.12160
  
         1  -0.00539     0.01464    -0.03512    -0.00638     0.00554     0.04880
         2  -0.05754    -0.02350    -0.02756     0.12117     0.08433     0.14435
         3   0.04828     0.07722    -0.09915     0.08414    -0.18800    -0.00939
         4   0.00330     0.01530    -0.03515     0.00616    -0.00465     0.04864
         5  -0.06011     0.01789     0.02639     0.12009     0.08290    -0.14614
         6  -0.05774     0.07110    -0.09850    -0.08614     0.18712    -0.01149
         7  -0.00001     0.00022    -0.05593    -0.00511    -0.00120     0.15216
         8  -0.05991    -0.01369    -0.01437     0.11594     0.08631     0.07894
         9   0.00961     0.22180    -0.13804     0.05375    -0.12348    -0.04770
        10  -0.00235     0.03717    -0.01135    -0.00424    -0.00444    -0.05088
        11  -0.05837     0.00618     0.01274     0.12004     0.08091    -0.08093
        12  -0.02583    -0.06124    -0.19078    -0.04741     0.12006    -0.03209
        13  -0.00047     0.00024    -0.05612     0.00537     0.00406     0.15201
        14  -0.06126     0.00845     0.01329     0.11529     0.08565    -0.08069
        15  -0.03621     0.21911    -0.13750    -0.05617     0.12178    -0.04936
        16  -0.00216     0.03722    -0.01153     0.00351     0.00373    -0.05102
        17  -0.05715    -0.01218    -0.01408     0.12062     0.08149     0.07917
        18   0.03121    -0.05791    -0.19086     0.04562    -0.12136    -0.03065
        19   0.00452    -0.01026    -0.07364    -0.00152     0.00065     0.27576
        20  -0.05704    -0.01911    -0.02435     0.11866     0.08767     0.14705
        21   0.01551     0.33088    -0.14820     0.11642    -0.27627    -0.08362
        22  -0.00562     0.05353     0.00845    -0.00395    -0.00275    -0.16588
        23  -0.06067     0.01509     0.02387     0.12022     0.08411    -0.14636
        24  -0.04369    -0.17375    -0.24393    -0.09102     0.26772    -0.05857
        25  -0.00354    -0.01073    -0.07374     0.00213     0.00402     0.27593
        26  -0.05922     0.01471     0.02324     0.11753     0.08670    -0.14923
        27  -0.05447     0.32665    -0.14707    -0.11919     0.27369    -0.08754
        28  -0.00069     0.05390     0.00839     0.00264     0.00008    -0.16584
        29  -0.05835    -0.02184    -0.02547     0.12133     0.08513     0.14433
        30   0.06196    -0.16736    -0.24374     0.08901    -0.26984    -0.05490
        31   0.00188     0.01755    -0.03599     0.00413    -0.00636     0.05111
        32  -0.07037     0.04881     0.05911    -0.01489    -0.02619    -0.08331
        33  -0.10992     0.03664     0.11010    -0.08367     0.08730     0.04226
        34  -0.00417     0.01709    -0.03606    -0.00432     0.00713     0.05129
        35  -0.06437    -0.05645    -0.05765    -0.01412    -0.02487     0.08408
        36   0.10623     0.04955     0.10897     0.08396    -0.08638     0.04259
        37   0.02230     0.05043    -0.13583    -0.11198     0.01913     0.11784
        38  -0.27938     0.19017     0.17027    -0.12862    -0.14230     0.02230
        39  -0.33977     0.16073     0.29362    -0.11555    -0.05381     0.09790
        40  -0.02911     0.04780    -0.13659     0.11108    -0.01763     0.11833
        41  -0.25615    -0.22096    -0.16493    -0.12775    -0.14159    -0.01852
        42   0.32319     0.20042     0.29040     0.11686     0.05592     0.09563
        43  -0.00552    -0.03595     0.07709     0.17980    -0.06039    -0.08217
        44   0.15108    -0.07781    -0.03044    -0.11291    -0.06748     0.04026
        45   0.10667    -0.14210     0.13013    -0.01108    -0.00710     0.03592
        46   0.01033    -0.03593     0.07806    -0.17921     0.05897    -0.08241
        47   0.14098     0.09320     0.03064    -0.11332    -0.06824    -0.03885
        48  -0.08921    -0.15364     0.13100     0.01347     0.00868     0.03575
        49  -0.00720    -0.09015     0.18328     0.37429    -0.13256    -0.26056
        50   0.36564    -0.22342    -0.14057     0.01430     0.07001    -0.12665
        51   0.32621    -0.25924    -0.04261     0.01162     0.17262    -0.03835
        52   0.01911    -0.09052     0.18530    -0.37292     0.12824    -0.26120
        53   0.33813     0.26301     0.13710     0.01400     0.07105     0.12449
        54  -0.29684    -0.29658    -0.03986    -0.01045    -0.17280    -0.03572
        55  -0.00541    -0.03576     0.07777     0.18220    -0.06470    -0.08579
        56   0.13574    -0.04563    -0.00251    -0.35287    -0.25520     0.36482
        57   0.08157    -0.18736     0.32758     0.04252    -0.29662     0.09647
        58   0.01020    -0.03578     0.07871    -0.18167     0.06315    -0.08612
        59   0.12832     0.05707     0.00529    -0.35472    -0.26039    -0.35910
        60  -0.05676    -0.19493     0.32846    -0.03669     0.30073     0.09285




    ROOT NO.    7           8           9          10          11          12

             0.14947     0.21817     0.27884     0.37240     0.41659     0.55106
  
         1   0.00127    -0.04032    -0.03971    -0.05392    -0.02670    -0.02761
         2   0.00634     0.02827    -0.04200    -0.10556     0.08585     0.01666
         3   0.00355    -0.14930     0.00834    -0.01538    -0.06219     0.29537
         4  -0.00144    -0.04027     0.03979     0.05401    -0.02673    -0.02762
         5   0.00601    -0.02902    -0.04215    -0.10561    -0.08599    -0.01547
         6  -0.00392    -0.14914    -0.00856     0.01556    -0.06217     0.29523
         7  -0.00095    -0.02308    -0.00160     0.00333     0.01901    -0.04304
         8   0.00669     0.01636    -0.06112    -0.13871     0.05911     0.01626
         9  -0.13337     0.02627    -0.07174     0.00133    -0.02936     0.21792
        10   0.00023    -0.06806     0.00495     0.01256    -0.09022    -0.05559
        11   0.00451    -0.01434    -0.02617    -0.08851    -0.05609    -0.01071
        12  -0.14155     0.01621     0.06451    -0.00224    -0.03074     0.21516
        13   0.00092    -0.02314     0.00178    -0.00324     0.01903    -0.04293
        14   0.00713    -0.01630    -0.06083    -0.13879    -0.05913    -0.01562
        15   0.13363     0.02588     0.07178    -0.00107    -0.02923     0.21797
        16  -0.00080    -0.06810    -0.00500    -0.01254    -0.09017    -0.05550
        17   0.00529     0.01441    -0.02642    -0.08840     0.05607     0.01134
        18   0.14182     0.01586    -0.06437     0.00256    -0.03102     0.21524
        19  -0.00314     0.00190     0.00707     0.01347     0.14639    -0.05396
        20   0.00418     0.03232    -0.05905    -0.14079     0.13303     0.01157
        21  -0.46736     0.27060    -0.33777     0.03152     0.05368    -0.24158
        22   0.00444    -0.11168    -0.02201    -0.03362    -0.25852    -0.14255
        23   0.00462    -0.03617    -0.04216    -0.12263    -0.14854    -0.06021
        24  -0.49190     0.25324     0.31168    -0.03509     0.05307    -0.24710
        25   0.00352     0.00172    -0.00679    -0.01300     0.14632    -0.05401
        26   0.00592    -0.03105    -0.05763    -0.14121    -0.13262    -0.01294
        27   0.46827     0.26896     0.33847    -0.03087     0.05443    -0.24137
        28  -0.00523    -0.11151     0.02167     0.03356    -0.25849    -0.14316
        29   0.00707     0.03727    -0.04342    -0.12235     0.14898     0.05906
        30   0.49305     0.25174    -0.31067     0.03642     0.05099    -0.24788
        31  -0.00059    -0.04057     0.05006     0.07258    -0.02091    -0.02193
        32  -0.00036     0.01614     0.03427     0.10309     0.10271     0.06106
        33   0.00191    -0.18706    -0.13423     0.01574    -0.03494    -0.00327
        34   0.00050    -0.04062    -0.05002    -0.07253    -0.02082    -0.02179
        35  -0.00045    -0.01695     0.03497     0.10312    -0.10308    -0.06100
        36  -0.00269    -0.18739     0.13382    -0.01626    -0.03433    -0.00273
        37  -0.00929    -0.05483     0.13657     0.20471     0.04088     0.21891
        38   0.00010     0.02142     0.02833     0.31991     0.33104     0.03650
        39   0.00785    -0.16898    -0.19040     0.16029     0.15767    -0.17475
        40   0.00955    -0.05485    -0.13666    -0.20471     0.04144     0.21824
        41  -0.00016    -0.02160     0.02911     0.31924    -0.33077    -0.03666
        42  -0.00866    -0.16979     0.19026    -0.16163     0.15923    -0.17449
        43   0.00282     0.05228     0.09645     0.07260     0.00851    -0.03027
        44  -0.00675     0.04574     0.05340     0.07110     0.07746     0.04798
        45  -0.00000    -0.07007    -0.07911    -0.02810    -0.04116    -0.03396
        46  -0.00270     0.05257    -0.09644    -0.07269     0.00862    -0.03004
        47  -0.00703    -0.04620     0.05377     0.07112    -0.07774    -0.04792
        48  -0.00038    -0.06974     0.07870     0.02780    -0.04078    -0.03358
        49   0.00371     0.22214     0.25590     0.18447     0.16597     0.17565
        50  -0.00720    -0.05870    -0.01246     0.28384     0.29687     0.02389
        51  -0.00109    -0.26988    -0.23106     0.12892     0.09185    -0.16367
        52  -0.00299     0.22328    -0.25604    -0.18488     0.16642     0.17547
        53  -0.00759     0.05706    -0.01084     0.28273    -0.29647    -0.02402
        54   0.00050    -0.27022     0.23048    -0.12961     0.09302    -0.16367
        55   0.00297     0.06141     0.11032     0.08292     0.01489    -0.01926
        56  -0.01392     0.17278     0.12590    -0.18128    -0.17769    -0.03088
        57  -0.00131     0.28050     0.15285    -0.22834    -0.15880     0.13570
        58  -0.00279     0.06172    -0.11030    -0.08307     0.01508    -0.01901
        59  -0.01440    -0.17145     0.12449    -0.18030     0.17702     0.03112
        60   0.00167     0.28231    -0.15298     0.22845    -0.15923     0.13548




    ROOT NO.   13          14          15          16          17          18

             0.61267     0.84894     0.88456     0.96248     0.98330     0.99515
  
         1  -0.15931    -0.05896    -0.06586     0.01009     0.00335    -0.00192
         2   0.03800    -0.00091     0.00071    -0.00151     0.01776    -0.05219
         3  -0.14615     0.20544     0.03452    -0.00395    -0.08216     0.06826
         4   0.15934     0.05918    -0.06570    -0.01013     0.00331     0.00186
         5   0.03874    -0.00180    -0.00064    -0.00155    -0.01785    -0.05267
         6   0.14611    -0.20513     0.03372     0.00393    -0.08114    -0.06878
         7  -0.01427    -0.00577     0.01372     0.00744    -0.01174     0.00189
         8  -0.03148    -0.03840     0.00597    -0.00493     0.01195    -0.10175
         9  -0.03117     0.06493     0.05696    -0.00150    -0.14322     0.02379
        10   0.00855     0.00086     0.01577    -0.00607     0.01376     0.00274
        11   0.12448     0.02893    -0.00168     0.00179    -0.01311    -0.10038
        12   0.03046    -0.06446     0.05698     0.00150    -0.13504    -0.02364
        13   0.01448     0.00552     0.01374    -0.00748    -0.01179    -0.00220
        14  -0.03129    -0.03866    -0.00593    -0.00498    -0.01191    -0.10198
        15   0.03134    -0.06465     0.05675     0.00134    -0.14284    -0.02489
        16  -0.00845    -0.00102     0.01576     0.00612     0.01372    -0.00280
        17   0.12423     0.02920     0.00191     0.00184     0.01310    -0.10015
        18  -0.03084     0.06479     0.05726    -0.00173    -0.13548     0.02290
        19   0.13243     0.09758     0.37231     0.41766    -0.07456     0.45257
        20   0.05490     0.01504     0.20823     0.22991    -0.01883     0.13422
        21   0.11291    -0.10475    -0.04154    -0.00119     0.08243    -0.03161
        22  -0.09229    -0.14302     0.31104    -0.40730     0.06327     0.46481
        23   0.07574    -0.05018     0.16444    -0.22904     0.01259     0.14378
        24  -0.11623     0.10420    -0.03442    -0.00552     0.07547     0.03261
        25  -0.13190    -0.09924     0.37196    -0.41748    -0.07054    -0.45312
        26   0.05431     0.01638    -0.20856     0.22983     0.01773     0.13441
        27  -0.11347     0.10409    -0.04010     0.00040     0.08217     0.03203
        28   0.09196     0.14191     0.31088     0.40765     0.06604    -0.46425
        29   0.07638    -0.05017    -0.16465    -0.22920    -0.01311     0.14351
        30   0.11568    -0.10416    -0.03414     0.00634     0.07574    -0.03258
        31   0.20835     0.09160    -0.12146    -0.04901    -0.01945     0.00227
        32  -0.05461    -0.06078     0.04640     0.01935    -0.02436    -0.04369
        33   0.12471    -0.06193    -0.04981    -0.01571     0.02351    -0.04356
        34  -0.20847    -0.09097    -0.12174     0.04886    -0.01948    -0.00238
        35  -0.05538    -0.06035    -0.04684     0.01945     0.02490    -0.04325
        36  -0.12447     0.06265    -0.04934     0.01564     0.02276     0.04413
        37   0.41048    -0.31108    -0.20998    -0.01489     0.42336     0.01942
        38  -0.12893    -0.06992     0.03520     0.03713     0.12105     0.03789
        39  -0.05389     0.19309    -0.03046    -0.03193    -0.11356     0.03076
        40  -0.41022     0.31163    -0.20826     0.01566     0.42453    -0.01599
        41  -0.12902    -0.07035    -0.03563     0.03715    -0.12233     0.03699
        42   0.05443    -0.19254    -0.03127     0.03136    -0.11326    -0.03179
        43   0.14936     0.17439    -0.14204    -0.07719    -0.09858     0.00293
        44  -0.04776    -0.06056     0.05183     0.02770     0.00975    -0.02138
        45   0.06187     0.01296    -0.05034    -0.02665    -0.00668    -0.01833
        46  -0.14964    -0.17362    -0.14282     0.07683    -0.09891    -0.00352
        47  -0.04829    -0.06018    -0.05227     0.02768    -0.00963    -0.02126
        48  -0.06173    -0.01248    -0.05031     0.02655    -0.00718     0.01858
        49  -0.02783     0.01949    -0.01299    -0.04186    -0.19284    -0.01687
        50  -0.18361    -0.03107     0.10231     0.03991    -0.02078     0.01710
        51   0.04050     0.12418    -0.09212    -0.04230     0.02621     0.03340
        52   0.02770    -0.01944    -0.01346     0.04153    -0.19379     0.01520
        53  -0.18420    -0.03059    -0.10278     0.03987     0.02090     0.01741
        54  -0.03962    -0.12399    -0.09217     0.04222     0.02612    -0.03302
        55   0.16293     0.18685    -0.16003    -0.08760    -0.10968     0.00376
        56   0.15362     0.26705    -0.14299    -0.12029    -0.29426    -0.01418
        57  -0.08555    -0.27909     0.14977     0.11787     0.27342     0.01491
        58  -0.16319    -0.18591    -0.16082     0.08716    -0.10997    -0.00440
        59   0.15416     0.26733     0.14498    -0.12010     0.29645    -0.01241
        60   0.08512     0.27684     0.15007    -0.11665     0.27275    -0.01318




    ROOT NO.   19          20          21          22          23          24

             1.24858     1.41422     1.53950     1.56778     1.61205     1.73741
  
         1   0.04071    -0.00600    -0.08245     0.00067     0.06759    -0.03772
         2  -0.02978     0.09460    -0.02289     0.00952    -0.07156    -0.06075
         3  -0.30057     0.01246     0.04095    -0.00866     0.04529    -0.01089
         4  -0.04059    -0.00603    -0.08251     0.00061     0.06774    -0.03751
         5  -0.02817    -0.09457     0.02321    -0.00935     0.07161     0.06069
         6   0.30093     0.01327     0.04104    -0.00849     0.04499    -0.01136
         7   0.00802    -0.22996    -0.10531    -0.00430     0.13350    -0.13226
         8  -0.03400     0.19990     0.00934     0.00895    -0.10656     0.01469
         9  -0.12255    -0.03998    -0.16754    -0.40676    -0.13693     0.04631
        10   0.00162     0.21466    -0.18042    -0.00735     0.13058    -0.07510
        11  -0.07885    -0.19525     0.09076    -0.00214     0.00550     0.07602
        12   0.12222    -0.02415    -0.09443     0.45506    -0.02730     0.03807
        13  -0.00747    -0.23001    -0.10532    -0.00412     0.13347    -0.13229
        14  -0.03305    -0.20009    -0.00996    -0.01078     0.10585    -0.01483
        15   0.12331    -0.03902    -0.16722    -0.40673    -0.13748     0.04638
        16  -0.00164     0.21468    -0.18043    -0.00720     0.13052    -0.07513
        17  -0.07971     0.19516    -0.09113     0.00390    -0.00556    -0.07588
        18  -0.12156    -0.02506    -0.09374     0.45501    -0.02783     0.03888
        19   0.09303    -0.17582     0.09113    -0.01735     0.11209     0.09349
        20   0.00422     0.33613     0.15080     0.00946    -0.19901     0.18418
        21   0.09799     0.02000     0.07772     0.23191     0.06337    -0.01986
        22   0.05867     0.18476    -0.00617     0.01705    -0.15332    -0.09887
        23  -0.07018    -0.31216     0.26773     0.00551    -0.18388     0.12175
        24  -0.09938     0.01348     0.03281    -0.25189     0.00431    -0.01609
        25  -0.09277    -0.17591     0.09148    -0.01713     0.11206     0.09338
        26   0.00451    -0.33605    -0.15045    -0.00845     0.19912    -0.18473
        27  -0.09888     0.02163     0.07817     0.23191     0.06258    -0.01912
        28  -0.05962     0.18488    -0.00589     0.01701    -0.15339    -0.09880
        29  -0.06954     0.31227    -0.26765    -0.00697     0.18404    -0.12183
        30   0.10032     0.01212     0.03377    -0.25170     0.00383    -0.01577
        31  -0.04155    -0.00326    -0.04495    -0.00024     0.02151     0.00739
        32   0.10097     0.07161     0.05454    -0.03529     0.25013     0.20928
        33   0.15679     0.08827     0.23164    -0.04852     0.21583    -0.01504
        34   0.04160    -0.00325    -0.04496    -0.00016     0.02128     0.00721
        35   0.10026    -0.07086    -0.05327     0.03525    -0.24926    -0.20798
        36  -0.15739     0.08805     0.23154    -0.04902     0.21746    -0.01502
        37  -0.19175    -0.02259     0.21753    -0.00588    -0.14620    -0.04991
        38  -0.17088    -0.07589    -0.10352     0.02674    -0.13566     0.10925
        39  -0.00597    -0.03920    -0.04828     0.01647    -0.09832    -0.18829
        40   0.19110    -0.02260     0.21750    -0.00592    -0.14567    -0.04952
        41  -0.17098     0.07523     0.10303    -0.02683     0.13541    -0.11052
        42   0.00717    -0.03925    -0.04859     0.01664    -0.09912    -0.18699
        43  -0.07857    -0.00011    -0.05836     0.01501    -0.05277     0.23414
        44   0.06701     0.04498     0.03251    -0.03295     0.24262     0.10104
        45   0.07215     0.06657     0.18502    -0.03383     0.13523     0.07852
        46   0.07860     0.00004    -0.05832     0.01519    -0.05304     0.23395
        47   0.06682    -0.04446    -0.03156     0.03293    -0.24204    -0.09928
        48  -0.07272     0.06652     0.18499    -0.03417     0.13668     0.07799
        49   0.32363     0.03925     0.25216    -0.01797    -0.04166    -0.27074
        50   0.04637    -0.04416    -0.08452     0.01120    -0.02227    -0.18347
        51  -0.18093    -0.03925    -0.05376     0.02904    -0.19289     0.08941
        52  -0.32304     0.03886     0.25195    -0.01836    -0.04127    -0.27015
        53   0.04727     0.04381     0.08403    -0.01102     0.02167     0.18342
        54   0.18028    -0.03903    -0.05388     0.02928    -0.19326     0.08937
        55  -0.09538    -0.00092    -0.08334     0.02010    -0.07136     0.32934
        56   0.16358    -0.00071     0.10960     0.01202    -0.15867    -0.08022
        57  -0.19881    -0.05904    -0.20549     0.01705    -0.00762    -0.00331
        58   0.09541    -0.00069    -0.08332     0.02036    -0.07165     0.32909
        59   0.16412     0.00050    -0.11062    -0.01169     0.15852     0.07918
        60   0.19760    -0.05840    -0.20471     0.01740    -0.00883    -0.00318




    ROOT NO.   25          26          27          28          29          30

             1.80840     2.06473     2.20160     2.81394     3.01515     3.17130
  
         1  -0.02948     0.04873    -0.18647     0.16766     0.01030    -0.07827
         2  -0.01935    -0.00065    -0.00044     0.01200     0.18197    -0.00296
         3  -0.00016     0.30736     0.06417     0.03929    -0.24069     0.01234
         4   0.02966    -0.04867     0.18654     0.16766     0.01028     0.07835
         5  -0.01963    -0.00220    -0.00055    -0.01177    -0.18298    -0.00297
         6   0.00024    -0.30730    -0.06408     0.03922    -0.23961    -0.01294
         7   0.01333     0.00138     0.00978    -0.01673     0.14768    -0.04320
         8  -0.08011     0.05829    -0.18521     0.12012     0.09206     0.08867
         9   0.00377     0.19899     0.04766    -0.02334     0.14303     0.00780
        10   0.01389     0.00270    -0.01128    -0.03595    -0.14783     0.03962
        11  -0.03792    -0.03057     0.19877     0.10852    -0.08042    -0.08293
        12  -0.00311    -0.20144    -0.04489    -0.02603     0.14282    -0.03418
[...]
 FREQ.       395.43        C  2 --  C 11           +7.8% ( 95.1%)     0.2%
 T-DIPOLE    0.3828        C  1 --  C 12           +7.8% ( 95.1%)     0.2%
 TRAVEL      0.1017        C  2 --  C  4           +6.7% ( 87.9%)     0.0%
 RED. MASS   0.4977        C  1 --  C  6           +6.7% ( 87.8%)     0.0%
 EFF. MASS  16.4842

 VIBRATION   10    6A       ATOM PAIR        ENERGY CONTRIBUTION    RADIAL
 FREQ.       512.69        C  1 --  C 12           +9.6% ( 88.6%)     3.7%
 T-DIPOLE    0.0543        C  2 --  C 11           +9.6% ( 88.6%)     3.7%
 TRAVEL      0.0914        C 12 --  C 16           +9.3% ( 87.1%)     0.0%
 RED. MASS   1.0476        C 11 --  C 15           +9.3% ( 87.1%)     0.0%
 EFF. MASS  15.7455

 VIBRATION   11    5B       ATOM PAIR        ENERGY CONTRIBUTION    RADIAL
 FREQ.       554.66        C  2 --  C 11           +9.4% ( 77.3%)     0.6%
 T-DIPOLE    0.4555        C  1 --  C 12           +9.4% ( 77.3%)     0.5%
 TRAVEL      0.0981        C  1 --  C  6           +6.9% ( 66.4%)     0.4%
 RED. MASS   0.8842        C  2 --  C  4           +6.9% ( 66.4%)     0.4%
 EFF. MASS  12.6448

 VIBRATION   12    7A       ATOM PAIR        ENERGY CONTRIBUTION    RADIAL
 FREQ.       603.85        C 15 --  H 19          +10.0% ( 53.7%)     0.5%
 T-DIPOLE    0.1555        C 16 --  H 20          +10.0% ( 53.7%)     0.5%
 TRAVEL      0.1276        C 15 --  H 17           +6.7% ( 44.0%)     0.3%
 RED. MASS   0.4204        C 16 --  H 18           +6.7% ( 44.0%)     0.2%
 EFF. MASS   6.8578

 VIBRATION   13    6B       ATOM PAIR        ENERGY CONTRIBUTION    RADIAL
 FREQ.       616.42        C  4 --  C  6          +13.5% (103.7%)     0.0%
 T-DIPOLE    0.1219        C  3 --  C  5          +12.4% ( 99.5%)     0.0%
 TRAVEL      0.0798        C  2 --  C  4          +10.4% ( 90.9%)     1.5%
 RED. MASS   2.2239        C  1 --  C  6          +10.4% ( 90.9%)     1.5%
 EFF. MASS  17.1746

 VIBRATION   14    7B       ATOM PAIR        ENERGY CONTRIBUTION    RADIAL
 FREQ.       657.23        C 15 --  H 19          +10.4% ( 48.7%)     0.0%
 T-DIPOLE    0.2068        C 16 --  H 20          +10.4% ( 48.7%)     0.0%
 TRAVEL      0.1386        C  2 --  C 11           +7.4% ( 41.1%)     0.0%
 RED. MASS   0.3675        C  1 --  C 12           +7.4% ( 41.1%)     0.0%
 EFF. MASS   5.3410

 VIBRATION   15    8A       ATOM PAIR        ENERGY CONTRIBUTION    RADIAL
 FREQ.       716.01        C  2 --  C 11          +12.2% ( 48.7%)     0.0%
 T-DIPOLE    0.0054        C  1 --  C 12          +12.2% ( 48.7%)     0.0%
 TRAVEL      0.1102        C  2 --  C  5          +10.5% ( 45.3%)     0.1%
 RED. MASS   1.2697        C  1 --  C  3          +10.5% ( 45.3%)     0.1%
 EFF. MASS   7.7555        C  1 --  C  6          +10.5% ( 45.1%)     0.0%
                           C  2 --  C  4          +10.5% ( 45.1%)     0.0%

 VIBRATION   16    8B       ATOM PAIR        ENERGY CONTRIBUTION    RADIAL
 FREQ.       747.14        C  2 --  C  5           +7.0% ( 59.6%)     2.8%
 T-DIPOLE    0.0657        C  1 --  C  3           +7.0% ( 59.6%)     2.8%
 TRAVEL      0.0834        C 12 --  C 16           +6.2% ( 56.3%)     1.3%
 RED. MASS   1.0653        C 11 --  C 15           +6.2% ( 56.3%)     1.3%
 EFF. MASS  12.9685

 VIBRATION   17    9B       ATOM PAIR        ENERGY CONTRIBUTION    RADIAL
 FREQ.       894.73        C  6 --  H 10          +36.0% ( 67.8%)     0.0%
 T-DIPOLE    0.4063        C  4 --  H  8          +36.0% ( 67.8%)     0.0%
 TRAVEL      0.1603        C  2 --  C  4           +6.0% ( 27.7%)     0.0%
 RED. MASS   0.4648        C  1 --  C  6           +6.0% ( 27.7%)     0.0%
 EFF. MASS   2.9336

 VIBRATION   18   10B       ATOM PAIR        ENERGY CONTRIBUTION    RADIAL
 FREQ.       897.84        C  5 --  H  9          +33.7% ( 66.3%)     0.0%
 T-DIPOLE    0.5046        C  3 --  H  7          +33.7% ( 66.3%)     0.0%
 TRAVEL      0.1508        C  1 --  C  3           +6.8% ( 29.8%)     0.0%
 RED. MASS   0.4664        C  2 --  C  5           +6.8% ( 29.8%)     0.0%
 EFF. MASS   3.3021

 VIBRATION   19    9A       ATOM PAIR        ENERGY CONTRIBUTION    RADIAL
 FREQ.       929.96        C  4 --  C  6           +9.8% ( 57.7%)    99.6%
 T-DIPOLE    0.1251        C  3 --  C  5           +9.4% ( 56.6%)   100.0%
 TRAVEL      0.0831        C  2 --  C  4           +6.0% ( 45.0%)    22.5%
 RED. MASS   0.7755        C  1 --  C  6           +6.0% ( 45.0%)    22.5%
 EFF. MASS  10.5087

 VIBRATION   20   10A       ATOM PAIR        ENERGY CONTRIBUTION    RADIAL
 FREQ.       977.93        C 12 --  H 14          +32.7% ( 58.6%)     0.0%
 T-DIPOLE    0.4268        C 11 --  H 13          +32.7% ( 58.6%)     0.0%
 TRAVEL      0.1612        C 16 --  H 18           +4.0% ( 20.5%)     0.0%
 RED. MASS   0.3667        C 15 --  H 17           +4.0% ( 20.5%)     0.0%
 EFF. MASS   2.6536

 VIBRATION   21   11B       ATOM PAIR        ENERGY CONTRIBUTION    RADIAL
 FREQ.       988.55        C 12 --  H 14          +32.7% ( 59.0%)     0.0%
 T-DIPOLE    0.7919        C 11 --  H 13          +32.7% ( 59.0%)     0.0%
 TRAVEL      0.1500        C  1 --  C 12           +5.0% ( 23.1%)     0.1%
 RED. MASS   0.4233        C  2 --  C 11           +5.0% ( 23.1%)     0.1%
 EFF. MASS   3.0311

 VIBRATION   22   11A       ATOM PAIR        ENERGY CONTRIBUTION    RADIAL
 FREQ.      1014.95        C  6 --  H 10          +20.5% ( 48.6%)     0.0%
 T-DIPOLE    0.0018        C  4 --  H  8          +20.5% ( 48.6%)     0.0%
 TRAVEL      0.1300        C  3 --  H  7          +16.0% ( 42.9%)     0.0%
 RED. MASS   0.5353        C  5 --  H  9          +16.0% ( 42.9%)     0.0%
 EFF. MASS   3.9297

 VIBRATION   23   12A       ATOM PAIR        ENERGY CONTRIBUTION    RADIAL
 FREQ.      1022.38        C  3 --  H  7          +15.4% ( 44.4%)     0.5%
 T-DIPOLE    0.1998        C  5 --  H  9          +15.4% ( 44.4%)     0.5%
 TRAVEL      0.1132        C  6 --  H 10          +10.4% ( 36.4%)     0.1%
 RED. MASS   0.4843        C  4 --  H  8          +10.4% ( 36.4%)     0.1%
 EFF. MASS   5.1491

 VIBRATION   24   12B       ATOM PAIR        ENERGY CONTRIBUTION    RADIAL
 FREQ.      1022.56        C 15 --  H 19           +9.5% ( 47.3%)    20.4%
 T-DIPOLE    0.6143        C 16 --  H 20           +9.5% ( 47.3%)    20.8%
 TRAVEL      0.0953        C  4 --  C  6           +8.8% ( 45.6%)     0.0%
 RED. MASS   0.4304        C 16 --  H 18           +8.4% ( 44.7%)     8.6%
 EFF. MASS   7.2600

 VIBRATION   25   13A       ATOM PAIR        ENERGY CONTRIBUTION    RADIAL
 FREQ.      1078.16        C  3 --  C  5           +7.6% ( 39.1%)    35.1%
 T-DIPOLE    0.1702        C 15 --  H 17           +7.6% ( 38.9%)    13.6%
 TRAVEL      0.0945        C 16 --  H 18           +7.6% ( 38.9%)    13.4%
 RED. MASS   0.4086        C 15 --  H 19           +7.3% ( 38.3%)    14.7%
 EFF. MASS   7.0102

 VIBRATION   26   14A       ATOM PAIR        ENERGY CONTRIBUTION    RADIAL
 FREQ.      1091.31        C 16 --  H 20          +21.2% ( 46.1%)     0.0%
 T-DIPOLE    0.6237        C 15 --  H 19          +21.1% ( 46.1%)     0.0%
 TRAVEL      0.1381        C 16 --  H 18          +20.5% ( 45.5%)     0.0%
 RED. MASS   0.5292        C 15 --  H 17          +20.5% ( 45.5%)     0.0%
 EFF. MASS   3.2404

 VIBRATION   27   13B       ATOM PAIR        ENERGY CONTRIBUTION    RADIAL
 FREQ.      1091.52        C 15 --  H 19          +20.9% ( 46.0%)     0.0%
 T-DIPOLE    0.6624        C 16 --  H 20          +20.9% ( 46.0%)     0.0%
 TRAVEL      0.1373        C 15 --  H 17          +20.4% ( 45.4%)     0.0%
 RED. MASS   0.5275        C 16 --  H 18          +20.4% ( 45.4%)     0.0%
 EFF. MASS   3.2753

 VIBRATION   28   14B       ATOM PAIR        ENERGY CONTRIBUTION    RADIAL
 FREQ.      1113.72        C  3 --  C  5          +11.8% ( 48.7%)     0.0%
 T-DIPOLE    0.2271        C  4 --  C  6           +9.0% ( 42.6%)     0.0%
 TRAVEL      0.0919        C  5 --  H  9           +8.9% ( 42.4%)    67.0%
 RED. MASS   0.4256        C  3 --  H  7           +8.9% ( 42.4%)    67.0%
 EFF. MASS   7.1651

 VIBRATION   29   15A       ATOM PAIR        ENERGY CONTRIBUTION    RADIAL
 FREQ.      1172.20        C  2 --  C  4          +11.0% ( 53.3%)    93.7%
 T-DIPOLE    0.1010        C  1 --  C  6          +11.0% ( 53.3%)    93.7%
 TRAVEL      0.0918        C  6 --  H 10           +9.6% ( 49.9%)     3.3%
 RED. MASS   0.5229        C  4 --  H  8           +9.6% ( 49.9%)     3.3%
 EFF. MASS   6.8279

 VIBRATION   30   16A       ATOM PAIR        ENERGY CONTRIBUTION    RADIAL
 FREQ.      1274.26        C  4 --  H  8          +24.5% ( 49.6%)     1.2%
 T-DIPOLE    0.0358        C  6 --  H 10          +24.5% ( 49.6%)     1.2%
 TRAVEL      0.1926        C  3 --  H  7          +21.9% ( 46.9%)     1.6%
 RED. MASS   0.2370        C  5 --  H  9          +21.9% ( 46.9%)     1.5%
 EFF. MASS   1.4271

 VIBRATION   31   15B       ATOM PAIR        ENERGY CONTRIBUTION    RADIAL
 FREQ.      1287.56        C  6 --  H 10          +10.7% ( 40.8%)     0.7%
 T-DIPOLE    0.4992        C  4 --  H  8          +10.7% ( 40.8%)     0.7%
 TRAVEL      0.1067        C  1 --  C 12          +10.6% ( 40.5%)    92.8%
 RED. MASS   0.4432        C  2 --  C 11          +10.6% ( 40.5%)    92.7%
 EFF. MASS   4.6004

 VIBRATION   32   17A       ATOM PAIR        ENERGY CONTRIBUTION    RADIAL
 FREQ.      1303.21        C 12 --  H 14          +14.0% ( 46.1%)     1.9%
 T-DIPOLE    0.1745        C 11 --  H 13          +14.0% ( 46.1%)     1.9%
 TRAVEL      0.1104        C  3 --  C  5           +9.8% ( 38.6%)    99.9%
 RED. MASS   0.2423        C  4 --  C  6           +7.3% ( 33.2%)    99.9%
 EFF. MASS   4.2492

 VIBRATION   33   16B       ATOM PAIR        ENERGY CONTRIBUTION    RADIAL
 FREQ.      1316.22        C 12 --  H 14          +21.9% ( 52.8%)     5.5%
 T-DIPOLE    0.1377        C 11 --  H 13          +21.9% ( 52.8%)     5.6%
 TRAVEL      0.1197        C  1 --  C 12           +6.7% ( 29.1%)    81.4%
 RED. MASS   0.2715        C  2 --  C 11           +6.7% ( 29.1%)    81.3%
 EFF. MASS   3.5758

 VIBRATION   34   18A       ATOM PAIR        ENERGY CONTRIBUTION    RADIAL
 FREQ.      1338.54        C  4 --  C  6          +14.1% ( 51.6%)   100.0%
 T-DIPOLE    0.1235        C  3 --  C  5          +13.3% ( 50.1%)   100.0%
 TRAVEL      0.0891        C 11 --  H 13           +9.4% ( 42.0%)     1.6%
 RED. MASS   0.5652        C 12 --  H 14           +9.4% ( 42.0%)     1.6%
 EFF. MASS   6.3379

 VIBRATION   35   17B       ATOM PAIR        ENERGY CONTRIBUTION    RADIAL
 FREQ.      1357.38        C  3 --  H  7          +18.1% ( 45.5%)     0.1%
 T-DIPOLE    0.0330        C  5 --  H  9          +18.1% ( 45.5%)     0.1%
 TRAVEL      0.1552        C  4 --  H  8          +15.7% ( 42.5%)     0.0%
 RED. MASS   0.1839        C  6 --  H 10          +15.7% ( 42.5%)     0.0%
 EFF. MASS   2.0637

 VIBRATION   36   19A       ATOM PAIR        ENERGY CONTRIBUTION    RADIAL
 FREQ.      1373.71        C 16 --  H 18          +13.7% ( 38.3%)     0.2%
 T-DIPOLE    0.2890        C 15 --  H 17          +13.7% ( 38.3%)     0.2%
 TRAVEL      0.1259        C 15 --  H 19          +12.4% ( 36.4%)     0.3%
 RED. MASS   0.2224        C 16 --  H 20          +12.4% ( 36.4%)     0.2%
 EFF. MASS   3.0976

 VIBRATION   37   18B       ATOM PAIR        ENERGY CONTRIBUTION    RADIAL
 FREQ.      1390.71        C 16 --  H 20          +19.5% ( 43.8%)     0.3%
 T-DIPOLE    0.3539        C 15 --  H 19          +19.5% ( 43.8%)     0.4%
 TRAVEL      0.1488        C 16 --  H 18          +16.2% ( 39.9%)     2.3%
 RED. MASS   0.2075        C 15 --  H 17          +16.2% ( 39.9%)     2.2%
 EFF. MASS   2.1901

 VIBRATION   38   20A       ATOM PAIR        ENERGY CONTRIBUTION    RADIAL
 FREQ.      1434.87        C  1 --  C 12          +13.0% ( 51.7%)    98.8%
 T-DIPOLE    0.3426        C  2 --  C 11          +13.0% ( 51.7%)    98.7%
 TRAVEL      0.0679        C  1 --  C  6           +9.9% ( 45.1%)    78.1%
 RED. MASS   1.3461        C  2 --  C  4           +9.9% ( 45.1%)    78.0%
 EFF. MASS  10.1881

 VIBRATION   39   21A       ATOM PAIR        ENERGY CONTRIBUTION    RADIAL
 FREQ.      1517.97        C  2 --  C  5          +12.2% ( 49.2%)    33.5%
 T-DIPOLE    0.3151        C  1 --  C  3          +12.2% ( 49.2%)    33.5%
 TRAVEL      0.0664        C  3 --  C  5          +12.0% ( 48.8%)   100.0%
 RED. MASS   1.5094        C  2 --  C  4          +11.1% ( 46.9%)    29.2%
 EFF. MASS  10.0892        C  1 --  C  6          +11.1% ( 46.9%)    29.1%

 VIBRATION   40   19B       ATOM PAIR        ENERGY CONTRIBUTION    RADIAL
 FREQ.      1595.15        C  2 --  C  4          +13.3% ( 51.1%)    66.4%
 T-DIPOLE    0.9385        C  1 --  C  6          +13.3% ( 51.1%)    66.5%
 TRAVEL      0.0648        C  2 --  C  5          +11.7% ( 47.8%)    55.2%
 RED. MASS   1.4787        C  1 --  C  3          +11.7% ( 47.8%)    55.2%
 EFF. MASS  10.0527

 VIBRATION   41   20B       ATOM PAIR        ENERGY CONTRIBUTION    RADIAL
 FREQ.      1693.28        C  2 --  C  5          +15.6% ( 54.8%)    90.4%
 T-DIPOLE    0.0373        C  1 --  C  3          +15.6% ( 54.8%)    90.4%
 TRAVEL      0.0579        C  1 --  C  6          +14.3% ( 52.6%)    84.6%
 RED. MASS   2.4935        C  2 --  C  4          +14.3% ( 52.6%)    84.6%
 EFF. MASS  11.8787

 VIBRATION   42   22A       ATOM PAIR        ENERGY CONTRIBUTION    RADIAL
 FREQ.      1711.48        C  4 --  C  6          +16.8% ( 57.6%)   100.0%
 T-DIPOLE    0.1216        C  3 --  C  5          +16.1% ( 56.5%)   100.0%
 TRAVEL      0.0575        C  2 --  C  4           +9.7% ( 43.7%)    41.2%
 RED. MASS   2.2866        C  1 --  C  6           +9.7% ( 43.7%)    41.3%
 EFF. MASS  11.9278

 VIBRATION   43   21B       ATOM PAIR        ENERGY CONTRIBUTION    RADIAL
 FREQ.      1842.33        C 12 --  C 16          +22.8% ( 70.2%)    99.4%
 T-DIPOLE    0.3896        C 11 --  C 15          +22.7% ( 70.0%)    99.4%
 TRAVEL      0.0555        C  1 --  C 12           +8.5% ( 42.8%)    50.5%
 RED. MASS   2.8126        C  2 --  C 11           +8.4% ( 42.7%)    50.7%
 EFF. MASS  11.8900

 VIBRATION   44   23A       ATOM PAIR        ENERGY CONTRIBUTION    RADIAL
 FREQ.      1842.73        C 11 --  C 15          +22.9% ( 70.2%)    99.4%
 T-DIPOLE    0.1344        C 12 --  C 16          +22.7% ( 70.0%)    99.4%
 TRAVEL      0.0555        C  2 --  C 11           +8.4% ( 42.5%)    49.7%
 RED. MASS   2.8110        C  1 --  C 12           +8.4% ( 42.4%)    49.5%
 EFF. MASS  11.8901

 VIBRATION   45   22B       ATOM PAIR        ENERGY CONTRIBUTION    RADIAL
 FREQ.      2713.37        C 16 --  H 18          +23.4% ( 49.8%)    98.7%
 T-DIPOLE    0.5883        C 15 --  H 17          +23.2% ( 49.6%)    98.8%
 TRAVEL      0.1307        C 16 --  H 20          +20.2% ( 46.2%)    98.4%
 RED. MASS   0.2015        C 15 --  H 19          +20.0% ( 46.1%)    98.2%
 EFF. MASS   1.4548

 VIBRATION   46   24A       ATOM PAIR        ENERGY CONTRIBUTION    RADIAL
 FREQ.      2713.48        C 15 --  H 17          +23.4% ( 49.8%)    98.8%
 T-DIPOLE    0.0978        C 16 --  H 18          +23.3% ( 49.7%)    98.8%
 TRAVEL      0.1307        C 15 --  H 19          +20.1% ( 46.1%)    98.2%
 RED. MASS   0.2013        C 16 --  H 20          +20.0% ( 46.0%)    98.4%
 EFF. MASS   1.4546

 VIBRATION   47   23B       ATOM PAIR        ENERGY CONTRIBUTION    RADIAL
 FREQ.      2751.34        C  6 --  H 10          +19.1% ( 44.2%)   100.0%
 T-DIPOLE    0.3485        C  4 --  H  8          +19.1% ( 44.2%)   100.0%
 TRAVEL      0.1325        C 12 --  H 14          +14.8% ( 39.0%)   100.0%
 RED. MASS   0.1439        C 11 --  H 13          +14.8% ( 39.0%)   100.0%
 EFF. MASS   1.3958        C  5 --  H  9          +12.2% ( 35.4%)   100.0%
                           C  3 --  H  7          +12.2% ( 35.4%)   100.0%

 VIBRATION   48   24B       ATOM PAIR        ENERGY CONTRIBUTION    RADIAL
 FREQ.      2752.06        C  3 --  H  7          +28.7% ( 54.1%)   100.0%
 T-DIPOLE    0.8378        C  5 --  H  9          +28.7% ( 54.1%)   100.0%
 TRAVEL      0.1330        C 12 --  H 14          +17.8% ( 42.7%)   100.0%
 RED. MASS   0.2220        C 11 --  H 13          +17.8% ( 42.6%)   100.0%
 EFF. MASS   1.3864

 VIBRATION   49   25A       ATOM PAIR        ENERGY CONTRIBUTION    RADIAL
 FREQ.      2752.43        C 11 --  H 13          +40.4% ( 64.2%)   100.0%
 T-DIPOLE    0.3719        C 12 --  H 14          +40.3% ( 64.2%)   100.0%
 TRAVEL      0.1312        C 15 --  H 19           +4.2% ( 20.6%)    98.9%
 RED. MASS   0.3240        C 16 --  H 20           +4.2% ( 20.6%)    99.0%
 EFF. MASS   1.4223

 VIBRATION   50   25B       ATOM PAIR        ENERGY CONTRIBUTION    RADIAL
 FREQ.      2756.19        C  6 --  H 10          +30.0% ( 55.3%)   100.0%
 T-DIPOLE    0.5731        C  4 --  H  8          +30.0% ( 55.3%)   100.0%
 TRAVEL      0.1336        C 11 --  H 13           +9.6% ( 31.2%)   100.0%
 RED. MASS   0.2045        C 12 --  H 14           +9.6% ( 31.2%)   100.0%
 EFF. MASS   1.3713

 VIBRATION   51   26A       ATOM PAIR        ENERGY CONTRIBUTION    RADIAL
 FREQ.      2761.93        C  3 --  H  7          +35.3% ( 60.0%)   100.0%
 T-DIPOLE    1.3407        C  5 --  H  9          +35.3% ( 60.0%)   100.0%
 TRAVEL      0.1326        C  6 --  H 10          +11.9% ( 34.8%)   100.0%
 RED. MASS   0.2706        C  4 --  H  8          +11.9% ( 34.8%)   100.0%
 EFF. MASS   1.3882

 VIBRATION   52   27A       ATOM PAIR        ENERGY CONTRIBUTION    RADIAL
 FREQ.      2767.32        C  4 --  H  8          +34.9% ( 59.6%)   100.0%
 T-DIPOLE    0.5389        C  6 --  H 10          +34.9% ( 59.6%)   100.0%
 TRAVEL      0.1303        C  3 --  H  7          +12.6% ( 35.8%)    99.9%
 RED. MASS   0.2693        C  5 --  H  9          +12.6% ( 35.8%)    99.9%
 EFF. MASS   1.4352

 VIBRATION   53   26B       ATOM PAIR        ENERGY CONTRIBUTION    RADIAL
 FREQ.      2783.91        C 16 --  H 20          +24.6% ( 49.1%)    94.8%
 T-DIPOLE    1.2932        C 15 --  H 19          +24.6% ( 49.1%)    95.0%
 TRAVEL      0.1354        C 16 --  H 18          +24.3% ( 48.8%)    94.9%
 RED. MASS   0.2371        C 15 --  H 17          +24.3% ( 48.8%)    94.8%
 EFF. MASS   1.3211

 VIBRATION   54   28A       ATOM PAIR        ENERGY CONTRIBUTION    RADIAL
 FREQ.      2785.43        C 15 --  H 19          +24.8% ( 49.3%)    95.1%
 T-DIPOLE    0.6577        C 16 --  H 20          +24.8% ( 49.3%)    94.9%
 TRAVEL      0.1352        C 15 --  H 17          +23.7% ( 48.2%)    94.6%
 RED. MASS   0.2336        C 16 --  H 18          +23.7% ( 48.2%)    94.7%
 EFF. MASS   1.3238

           FORCE CONSTANT IN INTERNAL COORDINATES (Millidynes/A)

    ATOM   CHEMICAL  BOND LENGTH      BOND ANGLE     TWIST ANGLE
   NUMBER   SYMBOL  FORCE CONSTANT  FORCE CONSTANT  FORCE CONSTANT

      1       C        0.000000        0.000000        0.000000
      2       C       12.568392        0.000000        0.000000
      3       C       62.438586      760.593615        0.000000
      4       C       11.521549       54.064262        0.851612
      5       C       10.358583       17.442039        1.972267
      6       C       10.391877       17.315954        1.963257
      7       H        4.259129        1.116322        0.347230
      8       H        4.264745        1.114521        0.343915
      9       H        4.259131        1.116368        0.346011
     10       H        4.264747        1.114576        0.343251
     11       C        9.424773      442.559024      615.217876
     12       C       11.519187      147.738679       62.375648
     13       H        4.232338        1.114758        0.371819
     14       H        4.232270        1.114764        0.372001
     15       C       12.783241        1.325593        0.394310
     16       C       12.782889        1.325683        0.394860
     17       H        4.210405        0.909445        0.302443
     18       H        4.211144        0.908444        0.302469
     19       H        4.220055        0.892518        0.299661
     20       H        4.219279        0.893399        0.299677



 TOTAL JOB TIME:             0.66 SECONDS

 == MOPAC DONE ==
