
                                 *****************
                                 * O   R   C   A *
                                 *****************

           --- An Ab Initio, DFT and Semiempirical electronic structure package ---

                  ########################################################
                  #                         -***-                        #
                  #               Developed by Frank Neese               #
                  #           Lehrstuhl fuer Theoretische Chemie         #
                  #  Institut fuer Physikalische und Theoretische Chemie #
                  #                    Universitaet Bonn                 #
                  #                        Germany                       #
                  #                theochem@thch.uni-bonn.de             #
                  #                                                      #
                  #                   All rights reserved                #
                  #                         -***-                        #
                  ########################################################


                         Program Version 2.6 - Revision 00 -
                                (SVN: $Rev: 678$)
                ($Date: 2007-05-14 11:56:14 +0200 (Mon, 14 May 2007) $)


 With contributions from (in alphabetic order):
   Ute Becker           : Parallelization
   Dmitry Ganyushin     : Spin-Orbit,Magnetic field MRCI
   Simone Kossmann      : meta GGA functionals
   Taras Petrenko       : Resonance Raman, NRVS
   Christoph Riplinger  : Improved optimizer
   Frank Wennmohs       : Multiple parts of the code


 We gratefully acknowledge several collegues who have allowed us to
 interface, adapt or use parts of their codes:
   Markus Reiher, Alexander Wolf and Bernd Hess : otool_dkh (higher order DKH)
   Andreas Klamt, Michael Diedenhofen           : otool_cosmo (COSMO solvation model)
   Alain StAmant                                : redundant internal coordinate setup
   Reinhart Ahlrichs                            : matrix diagonalization, basis sets
   Frank Weinhold                               : gennbo (NPA and NBO analysis)


Building standard basis:
Your calculation utilizes the basis: 3-21G
Cite in your paper:
H - Ne: J.S. Binkley, J.A. Pople, W.J. Hehre, J. Am. Chem. Soc. 102 939 (1980)
Na - Ar: M.S. Gordon, J.S. Binkley, J.A. Pople, W.J. Pietro and W.J. Hehre,
         J. Am. Chem. Soc. 104, 2797 (1983).
 K - Ca: K.D. Dobbs, W.J. Hehre, J. Comput. Chem. 7, 359 (1986).
Ga - Kr: K.D. Dobbs, W.J. Hehre, J. Comput. Chem. 7, 359 (1986).
Sc - Zn: K.D. Dobbs, W.J. Hehre, J. Comput. Chem. 8, 861 (1987).
Y - Cd: K.D. Dobbs, W.J. Hehre, J. Comput. Chem. 8, 880 (1987).
Cs     : A 3-21G quality set derived from the Huzinage MIDI basis sets.
        E.D. Glendening and D. Feller, J. Phys. Chem. (to be published)

Done building standard basis
================================================================================
                                       INPUT FILE
================================================================================
NAME = /u/qb/adamlt/orca/cclib/dvb_freq.inp
|  1> #divinyl-benzene
|  2> 
|  3> ! RKS B3LYP NumFreq
|  4> 
|  5> %basis basis _3_21G 
|  6> end
|  7> 
|  8> * xyz 0 1
|  9>   C      -1.253473      0.673562     -0.001768
| 10>   C      -1.188216     -0.732524     -0.001718
| 11>   C       0.037911     -1.386348     -0.001787
| 12>   C       1.253472     -0.673562     -0.000787
| 13>   C       1.188215      0.732524     -0.000806
| 14>   H      -2.101734     -1.315291     -0.002520
| 15>   H       0.066487     -2.471490     -0.001436
| 16>   H       2.101733      1.315292     -0.000537
| 17>   C       2.520853     -1.426335     -0.000357
| 18>   C       3.758089     -0.917661      0.002362
| 19>   H       3.950789      0.150588      0.004752
| 20>   H       2.402195     -2.508463     -0.002691
| 21>   H       4.631443     -1.560406      0.002911
| 22>   C      -2.520854      1.426334     -0.001230
| 23>   H      -2.402198      2.508461     -0.003945
| 24>   C      -3.758087      0.917662      0.002788
| 25>   H      -3.950784     -0.150586      0.006095
| 26>   H      -4.631440      1.560407      0.003945
| 27>   C      -0.037911      1.386348     -0.001865
| 28>   H      -0.066488      2.471490     -0.001404
| 29> *
| 30> 
| 31>                          ****END OF INPUT****
================================================================================

                       ****************************
                       * Single Point Calculation *
                       ****************************

---------------------------------
CARTESIAN COORDINATES (ANGSTROEM)
---------------------------------
  C    -1.253473    0.673562   -0.001768
  C    -1.188216   -0.732524   -0.001718
  C     0.037911   -1.386348   -0.001787
  C     1.253472   -0.673562   -0.000787
  C     1.188215    0.732524   -0.000806
  H    -2.101734   -1.315291   -0.002520
  H     0.066487   -2.471490   -0.001436
  H     2.101733    1.315292   -0.000537
  C     2.520853   -1.426335   -0.000357
  C     3.758089   -0.917661    0.002362
  H     3.950789    0.150588    0.004752
  H     2.402195   -2.508463   -0.002691
  H     4.631443   -1.560406    0.002911
  C    -2.520854    1.426334   -0.001230
  H    -2.402198    2.508461   -0.003945
  C    -3.758087    0.917662    0.002788
  H    -3.950784   -0.150586    0.006095
  H    -4.631440    1.560407    0.003945
  C    -0.037911    1.386348   -0.001865
  H    -0.066488    2.471490   -0.001404

----------------------------
CARTESIAN COORDINATES (A.U.)
----------------------------
  NO LB    ZA    FRAG    MASS        X           Y           Z
   0 C   6.0000    0    12.011   -2.368766    1.272872   -0.003341
   1 C   6.0000    0    12.011   -2.245446   -1.384296   -0.003247
   2 C   6.0000    0    12.011    0.071643   -2.619869   -0.003377
   3 C   6.0000    0    12.011    2.368764   -1.272872   -0.001487
   4 C   6.0000    0    12.011    2.245444    1.384296   -0.001523
   5 H   1.0000    0     1.008   -3.971778   -2.485588   -0.004762
   6 H   1.0000    0     1.008    0.125645   -4.670529   -0.002714
   7 H   1.0000    0     1.008    3.971776    2.485590   -0.001015
   8 C   6.0000    0    12.011    4.763814   -2.695435   -0.000675
   9 C   6.0000    0    12.011    7.101896   -1.734161    0.004464
  10 H   1.0000    0     1.008    7.466053    0.284576    0.008980
  11 H   1.0000    0     1.008    4.539578   -4.740400   -0.005085
  12 H   1.0000    0     1.008    8.752328   -2.948797    0.005501
  13 C   6.0000    0    12.011   -4.763816    2.695433   -0.002324
  14 H   1.0000    0     1.008   -4.539584    4.740396   -0.007455
  15 C   6.0000    0    12.011   -7.101892    1.734163    0.005269
  16 H   1.0000    0     1.008   -7.466044   -0.284572    0.011518
  17 H   1.0000    0     1.008   -8.752322    2.948799    0.007455
  18 C   6.0000    0    12.011   -0.071643    2.619869   -0.003524
  19 H   1.0000    0     1.008   -0.125647    4.670529   -0.002653

--------------------------------
INTERNAL COORDINATES (ANGSTROEM)
--------------------------------
 C     0   0   0   0.000000     0.000     0.000
 C     1   0   0   1.407599     0.000     0.000
 C     2   1   0   1.389559   120.726     0.000
 C     3   2   1   1.409132   121.545     0.054
 C     4   3   2   1.407599   117.729   359.949
 H     2   1   3   1.083574   119.878   180.055
 H     3   2   1   1.085518   119.577   179.981
 H     5   4   3   1.083575   119.878   180.029
 C     4   3   2   1.474083   118.905   179.975
 C     9   4   3   1.337726   126.942   180.096
 H    10   9   4   1.085493   122.575     0.000
 H     9   4   3   1.088617   114.451     0.105
 H    10   9   4   1.084375   121.299   179.970
 C     1   2   3   1.474083   123.366   180.022
 H    14   1   2   1.088616   114.451   180.150
 C    14   1   2   1.337725   126.942     0.183
 H    16  14   1   1.085494   122.575     0.000
 H    16  14   1   1.084374   121.299   179.930
 C     5   4   3   1.389558   120.726     0.000
 H    19   5   4   1.085518   119.577   179.972

---------------------------
INTERNAL COORDINATES (A.U.)
---------------------------
 C     0   0   0   0.000000     0.000     0.000
 C     1   0   0   2.660029     0.000     0.000
 C     2   1   0   2.625936   120.726     0.000
 C     3   2   1   2.662925   121.545     0.054
 C     4   3   2   2.660029   117.729   359.949
 H     2   1   3   2.047698   119.878   180.055
 H     3   2   1   2.051372   119.577   179.981
 H     5   4   3   2.047699   119.878   180.029
 C     4   3   2   2.785668   118.905   179.975
 C     9   4   3   2.527984   126.942   180.096
 H    10   9   4   2.051324   122.575     0.000
 H     9   4   3   2.057227   114.451     0.105
 H    10   9   4   2.049211   121.299   179.970
 C     1   2   3   2.785667   123.366   180.022
 H    14   1   2   2.057226   114.451   180.150
 C    14   1   2   2.527983   126.942     0.183
 H    16  14   1   2.051326   122.575     0.000
 H    16  14   1   2.049210   121.299   179.930
 C     5   4   3   2.625935   120.726     0.000
 H    19   5   4   2.051372   119.577   179.972

---------------------
BASIS SET INFORMATION
---------------------
There are 2 groups of distinct atoms

 Group   1 Type C  : 6s3p contracted to 3s2p pattern {321/21}
 Group   2 Type H  : 3s contracted to 2s pattern {21}

Atom   0C   basis set group =>   1
Atom   1C   basis set group =>   1
Atom   2C   basis set group =>   1
Atom   3C   basis set group =>   1
Atom   4C   basis set group =>   1
Atom   5H   basis set group =>   2
Atom   6H   basis set group =>   2
Atom   7H   basis set group =>   2
Atom   8C   basis set group =>   1
Atom   9C   basis set group =>   1
Atom  10H   basis set group =>   2
Atom  11H   basis set group =>   2
Atom  12H   basis set group =>   2
Atom  13C   basis set group =>   1
Atom  14H   basis set group =>   2
Atom  15C   basis set group =>   1
Atom  16H   basis set group =>   2
Atom  17H   basis set group =>   2
Atom  18C   basis set group =>   1
Atom  19H   basis set group =>   2
------------------------------------------------------------------------------
                           ORCA GTO INTEGRAL CALCULATION
------------------------------------------------------------------------------

                         BASIS SET STATISTICS AND STARTUP INFO

 # of primitive gaussian shells          ...  120
 # of primitive gaussian functions       ...  180
 # of contracted shell                   ...   70
 # of contracted basis functions         ...  110
 Highest angular momentum                ...    1
 Maximum contraction depth               ...    3
 Integral threshhold             Thresh  ...  1.000e-10
 Primitive cut-off               TCut    ...  1.000e-11


                              INTEGRAL EVALUATION

 One electron integrals                  ... done
 Pre-screening matrix                    ... done
 Shell pair data                         ... done (   0.002 sec)

-------------------------------------------------------------------------------
                                 ORCA SCF
-------------------------------------------------------------------------------

------------
SCF SETTINGS
------------
Hamiltonian:
 Density Functional     Method          .... DFT(GTOs)
 Exchange Functional    Exchange        .... B88
   X-Alpha parameter    XAlpha          ....  0.666667
   Becke's b parameter  XBeta           ....  0.004200
 Correlation Functional Correlation     .... LYP
 LDA part of GGA corr.  LDAOpt          .... VWN-5
 Gradients option       PostSCFGGA      .... off
 Hybrid DFT is turned on
   Fraction HF Exchange ScalHFX         ....  0.200000
   Scaling of DF-GGA-X  ScalDFX         ....  0.720000
   Scaling of DF-GGA-C  ScalDFC         ....  0.810000
   Scaling of DF-LDA-C  ScalLDAC        ....  1.000000
   Perturbative correction              ....  0.000000


General Settings:
 Integral files         IntName         .... /u/qb/adamlt/orca/cclib/dvb_freq
 Hartree-Fock type      HFTyp           .... RHF
 Total Charge           Charge          ....    0
 Multiplicity           Mult            ....    1
 Number of Electrons    NEL             ....   70
 Basis Dimension        Dim             ....  110
 Nuclear Repulsion      ENuc            ....    450.3477019147 Eh

Convergence Acceleration:
 DIIS                   CNVDIIS         .... on
   Start iteration      DIISMaxIt       ....    12
   Startup error        DIISStart       ....  0.200000
   # of expansion vecs  DIISMaxEq       ....     5
   Bias factor          DIISBfac        ....   1.050
   Max. coefficient     DIISMaxC        ....  10.000
 Newton-Raphson         CNVNR           .... off
 SOSCF                  CNVSOSCF        .... off
 Level Shifting         CNVShift        .... on
   Level shift para.    LevelShift      ....    0.2500
   Turn off err/grad.   ShiftErr        ....    0.0010
 Zerner damping         CNVZerner       .... off
 Static damping         CNVDamp         .... on
   Fraction old density DampFac         ....    0.7000
   Max. Damping (<1)    DampMax         ....    0.9800
   Min. Damping (>=0)   DampMin         ....    0.0000
   Turn off err/grad.   DampErr         ....    0.1000
 Fernandez-Rico         CNVRico         .... off

SCF Procedure:
 Maximum # iterations   MaxIter         ....   125
 SCF integral mode      SCFMode         .... Direct
 Reset frequeny         DirectResetFreq ....    20
 Integral Threshold     Thresh          ....  1.000e-10 Eh
 Primitive CutOff       TCut            ....  1.000e-11 Eh

Convergence Tolerance:
 Convergence Check Mode ConvCheckMode   .... Total+1el-Energy
 Energy Change          TolE            ....  1.000e-06 Eh
 1-El. energy change                    ....  1.000e-03 Eh
 DIIS Error             TolErr          ....  3.000e-06


Diagonalization of the overlap matrix:
Smallest eigenvalue                        ... 1.445e-03
Time for diagonalization                   ...    0.068 sec
Time for construction of square roots      ...    0.090 sec
Total time needed                          ...    0.158 sec

-------------------
DFT GRID GENERATION
-------------------

General Integration Accuracy     IntAcc      ...  4.340
Radial Grid Type                 RadialGrid  ... Gauss-Chebyshev
Angular Grid (max. acc.)         AngularGrid ... Lebedev-110
Angular grid pruning method      GridPruning ... 3 (G Style)
Weight generation scheme         WeightScheme... Atomic-XC
Basis function cutoff            BFCut       ...    1.0000e-10
Integration weight cutoff        WCut        ...    1.0000e-14
Grids for H and He will be reduced by one unit

# of grid points (after initial pruning)     ...  24500 (   0.1 sec)
# of grid points (after weights+screening)   ...  21942 (   0.5 sec)
Reduced shell lists constructed in    0.6 sec

Total number of grid points                  ...    21942
Total number of batches                      ...      320
Average number of points per batch           ...       68
Average number of grid points per atom       ...     1097
Average number of shells per batch           ...    45.20 (64.57%)
Average number of basis functions per batch  ...    75.79 (68.90%)
Average number of large shells per batch     ...    34.06 (75.35%)
Average number of large basis fcns per batch ...    58.31 (76.93%)

Time for grid setup =    1.313 sec

------------------------------
INITIAL GUESS: MODEL POTENTIAL
------------------------------
Loading Hartree-Fock densities                     ... done
Calculating cut-offs                               ... done
Setting up the integral package                    ... done
Initializing the effective Hamiltonian             ... done
Starting the Coulomb interaction                   ... done (   0.2 sec)
Starting the XC term evaluation                    ... done (   1.9 sec)
  promolecular density results
     # of electrons  =     69.992302141
     EX              =    -54.326909145
     EC              =     -2.300838878
     EX+EC           =    -56.627748023
Transforming the Hamiltonian                       ... done (   0.0 sec)
Diagonalizing the Hamiltonian                      ... done (   0.0 sec)
Back transforming the eigenvectors                 ... done (   0.0 sec)
Now organizing SCF variables                       ... done
                      ------------------
                      INITIAL GUESS DONE (   2.9 sec)
                      ------------------
--------------
SCF ITERATIONS
--------------
ITER       Energy         Delta-E        Max-DP      RMS-DP      [F,P]     Damp
               ***  Starting incremental Fock matrix formation  ***
  0   -384.5075711306   0.000000000000 0.03559237  0.00242163  0.1424344 0.7000
  1   -384.5752421935  -0.067671062837 0.02919787  0.00189925  0.0783192 0.7000
                               ***Turning on DIIS***
  2   -384.6077503485  -0.032508155048 0.05217393  0.00350521  0.0339699 0.0000
  3   -384.6547574537  -0.047007105150 0.02123787  0.00133651  0.0377566 0.0000
  4   -384.6651719889  -0.010414535264 0.00600263  0.00036177  0.0060148 0.0000
  5   -384.6655525633  -0.000380574429 0.00202330  0.00010590  0.0021406 0.0000
  6   -384.6655790562  -0.000026492815 0.00060952  0.00003996  0.0003111 0.0000
  7   -384.6655807872  -0.000001731022 0.00016482  0.00000827  0.0001009 0.0000
  8   -384.6655808227  -0.000000035543 0.00008829  0.00000392  0.0000667 0.0000
                 **** Energy Check signals convergence ****

               *****************************************************
               *                     SUCCESS                       *
               *           SCF CONVERGED AFTER   9 CYCLES          *
               *****************************************************

Setting up the final grid:

General Integration Accuracy     IntAcc      ...  4.670
Radial Grid Type                 RadialGrid  ... Gauss-Chebyshev
Angular Grid (max. acc.)         AngularGrid ... Lebedev-302
Angular grid pruning method      GridPruning ... 3 (G Style)
Weight generation scheme         WeightScheme... Atomic-XC
Basis function cutoff            BFCut       ...    1.0000e-10
Integration weight cutoff        WCut        ...    1.0000e-14
Grids for H and He will be reduced by one unit

# of grid points (after initial pruning)     ...  96060 (   0.2 sec)
# of grid points (after weights+screening)   ...  84416 (   1.7 sec)
Reduced shell lists constructed in    2.7 sec

Total number of grid points                  ...    84416
Total number of batches                      ...      320
Average number of points per batch           ...      263
Average number of grid points per atom       ...     4221
Average number of shells per batch           ...    46.80 (66.86%)
Average number of basis functions per batch  ...    78.11 (71.01%)
Average number of large shells per batch     ...    36.12 (77.16%)
Average number of large basis fcns per batch ...    61.54 (78.79%)

Final grid set up in    4.9 sec
Final integration                            ... done (   4.9 sec)
Change in XC energy                          ...    -0.001053536
Integrated number of electrons               ...    69.999076944
Previous integrated no of electrons          ...    69.996349436

----------------
TOTAL SCF ENERGY
----------------

Total Energy       :         -384.66663440 Eh          -10467.04839 eV

Components:
Nuclear Repulsion  :          450.34770191 Eh           12254.27621 eV
Electronic Energy  :         -835.01433631 Eh          -22721.32460 eV

One Electron Energy:        -1409.46722975 Eh          -38352.58995 eV
Two Electron Energy:          574.45289344 Eh           15631.26535 eV

Virial components:
Potential Energy   :         -766.11991179 Eh          -20846.65908 eV
Kinetic Energy     :          381.45327740 Eh           10379.61070 eV
Virial Ratio       :            2.00842399


DFT components:
N(Alpha)           :       34.999538472247 electrons
N(Beta)            :       34.999538472247 electrons
N(Total)           :       69.999076944494 electrons
E(X)               :      -43.744464212319 Eh       
E(C)               :       -2.723965645308 Eh       
E(XC)              :      -46.468429857627 Eh       

---------------
SCF CONVERGENCE
---------------

  Last Energy change         ...   -3.9236e-08  Tolerance :   1.0000e-06
  Last MAX-Density change    ...    1.4862e-05  Tolerance :   1.0000e-05
  Last RMS-Density change    ...    6.8188e-07  Tolerance :   1.0000e-06
  Last DIIS Error            ...    1.0369e-05  Tolerance :   3.0000e-06

             **** THE GBW FILE WAS UPDATED (/u/qb/adamlt/orca/cclib/dvb_freq.gbw) ****
             **** DENSITY FILE WAS UPDATED (/u/qb/adamlt/orca/cclib/dvb_freq.scfp.tmp) ****
             **** ENERGY FILE WAS UPDATED (/u/qb/adamlt/orca/cclib/dvb_freq.en.tmp) ****
----------------
ORBITAL ENERGIES
----------------

  NO   OCC          E(Eh)            E(eV)
   0   2.0000     -10.138179      -275.8669
   1   2.0000     -10.138093      -275.8646
   2   2.0000     -10.130081      -275.6466
   3   2.0000     -10.130071      -275.6463
   4   2.0000     -10.128253      -275.5969
   5   2.0000     -10.128231      -275.5963
   6   2.0000     -10.126577      -275.5512
   7   2.0000     -10.126271      -275.5429
   8   2.0000     -10.117780      -275.3119
   9   2.0000     -10.117774      -275.3117
  10   2.0000      -0.865725       -23.5570
  11   2.0000      -0.805868       -21.9282
  12   2.0000      -0.766961       -20.8695
  13   2.0000      -0.749895       -20.4052
  14   2.0000      -0.716344       -19.4922
  15   2.0000      -0.639111       -17.3907
  16   2.0000      -0.609033       -16.5722
  17   2.0000      -0.573958       -15.6178
  18   2.0000      -0.557636       -15.1737
  19   2.0000      -0.504983       -13.7409
  20   2.0000      -0.491441       -13.3724
  21   2.0000      -0.457127       -12.4387
  22   2.0000      -0.448313       -12.1989
  23   2.0000      -0.442063       -12.0288
  24   2.0000      -0.424151       -11.5414
  25   2.0000      -0.405925       -11.0455
  26   2.0000      -0.390887       -10.6363
  27   2.0000      -0.381265       -10.3745
  28   2.0000      -0.355465        -9.6724
  29   2.0000      -0.347137        -9.4458
  30   2.0000      -0.336568        -9.1582
  31   2.0000      -0.320981        -8.7341
  32   2.0000      -0.268130        -7.2960
  33   2.0000      -0.253093        -6.8868
  34   2.0000      -0.209742        -5.7072
  35   0.0000      -0.042825        -1.1653
  36   0.0000       0.006736         0.1833
  37   0.0000       0.025973         0.7067
  38   0.0000       0.097282         2.6471
  39   0.0000       0.114701         3.1211
  40   0.0000       0.121170         3.2971
  41   0.0000       0.138572         3.7706
  42   0.0000       0.144383         3.9288
  43   0.0000       0.158498         4.3129
  44   0.0000       0.191737         5.2173
  45   0.0000       0.192258         5.2315
  46   0.0000       0.220886         6.0105
  47   0.0000       0.224475         6.1081
  48   0.0000       0.231118         6.2889
  49   0.0000       0.261830         7.1246
  50   0.0000       0.277323         7.5462
  51   0.0000       0.309353         8.4177
  52   0.0000       0.331572         9.0223
  53   0.0000       0.363782         9.8988
  54   0.0000       0.379341        10.3221
  55   0.0000       0.389741        10.6051
  56   0.0000       0.448424        12.2019
  57   0.0000       0.467239        12.7139
  58   0.0000       0.582122        15.8400
  59   0.0000       0.585442        15.9303
  60   0.0000       0.619643        16.8609
  61   0.0000       0.672423        18.2971
  62   0.0000       0.687162        18.6982
  63   0.0000       0.691039        18.8036
  64   0.0000       0.716087        19.4852
  65   0.0000       0.719219        19.5705
  66   0.0000       0.721134        19.6226
  67   0.0000       0.746639        20.3166
  68   0.0000       0.772549        21.0216
  69   0.0000       0.782111        21.2818
  70   0.0000       0.796271        21.6671
  71   0.0000       0.803756        21.8708
  72   0.0000       0.807161        21.9634
  73   0.0000       0.824865        22.4452
  74   0.0000       0.842054        22.9129
  75   0.0000       0.852573        23.1991
  76   0.0000       0.859867        23.3976
  77   0.0000       0.887478        24.1489
  78   0.0000       0.888503        24.1768
  79   0.0000       0.899818        24.4847
  80   0.0000       0.965543        26.2731
  81   0.0000       0.988472        26.8970
  82   0.0000       1.003532        27.3068
  83   0.0000       1.014403        27.6026
  84   0.0000       1.014933        27.6170
  85   0.0000       1.062876        28.9216
  86   0.0000       1.082049        29.4433
  87   0.0000       1.120767        30.4968
  88   0.0000       1.142674        31.0929
  89   0.0000       1.183868        32.2139
  90   0.0000       1.205898        32.8133
  91   0.0000       1.241682        33.7870
  92   0.0000       1.286593        35.0091
  93   0.0000       1.313336        35.7368
  94   0.0000       1.353925        36.8412
  95   0.0000       1.382487        37.6184
  96   0.0000       1.433395        39.0037
  97   0.0000       1.456894        39.6431
  98   0.0000       1.486007        40.4353
  99   0.0000       1.517685        41.2973
 100   0.0000       1.554119        42.2887
 101   0.0000       1.562629        42.5202
 102   0.0000       1.595882        43.4251
 103   0.0000       1.628472        44.3119
 104   0.0000       1.629102        44.3290
 105   0.0000       1.830197        49.8010
 106   0.0000       1.920007        52.2447
 107   0.0000       1.950876        53.0847
 108   0.0000       2.026439        55.1408
 109   0.0000       2.484801        67.6132

                    ********************************
                    * MULLIKEN POPULATION ANALYSIS *
                    ********************************

-----------------------
MULLIKEN ATOMIC CHARGES
-----------------------
   0 C :   -0.015512
   1 C :   -0.190500
   2 C :   -0.180247
   3 C :   -0.015512
   4 C :   -0.190501
   5 H :    0.185301
   6 H :    0.184918
   7 H :    0.185301
   8 C :   -0.170247
   9 C :   -0.373604
  10 H :    0.184874
  11 H :    0.184796
  12 H :    0.190221
  13 C :   -0.170247
  14 H :    0.184796
  15 C :   -0.373604
  16 H :    0.184874
  17 H :    0.190221
  18 C :   -0.180247
  19 H :    0.184918
Sum of atomic charges:   -0.0000000

--------------------------------
MULLIKEN REDUCED ORBITAL CHARGES
--------------------------------
  0 C s       :     3.016401  s :     3.016401
      pz      :     1.388047  p :     2.999111
      px      :     0.721747
      py      :     0.889316
  1 C s       :     3.009687  s :     3.009687
      pz      :     1.470243  p :     3.180813
      px      :     0.800276
      py      :     0.910294
  2 C s       :     2.993389  s :     2.993389
      pz      :     1.464657  p :     3.186857
      px      :     0.677363
      py      :     1.044837
  3 C s       :     3.016401  s :     3.016401
      pz      :     1.388047  p :     2.999111
      px      :     0.721747
      py      :     0.889316
  4 C s       :     3.009688  s :     3.009688
      pz      :     1.470243  p :     3.180813
      px      :     0.800276
      py      :     0.910294
  5 H s       :     0.814699  s :     0.814699
  6 H s       :     0.815082  s :     0.815082
  7 H s       :     0.814699  s :     0.814699
  8 C s       :     2.983725  s :     2.983725
      pz      :     1.452836  p :     3.186522
      px      :     0.674081
      py      :     1.059605
  9 C s       :     2.976558  s :     2.976558
      pz      :     1.534735  p :     3.397046
      px      :     0.774784
      py      :     1.087528
 10 H s       :     0.815126  s :     0.815126
 11 H s       :     0.815204  s :     0.815204
 12 H s       :     0.809779  s :     0.809779
 13 C s       :     2.983724  s :     2.983724
      pz      :     1.452835  p :     3.186522
      px      :     0.674083
      py      :     1.059605
 14 H s       :     0.815204  s :     0.815204
 15 C s       :     2.976557  s :     2.976557
      pz      :     1.534734  p :     3.397047
      px      :     0.774785
      py      :     1.087528
 16 H s       :     0.815126  s :     0.815126
 17 H s       :     0.809779  s :     0.809779
 18 C s       :     2.993389  s :     2.993389
      pz      :     1.464657  p :     3.186857
      px      :     0.677363
      py      :     1.044837
 19 H s       :     0.815082  s :     0.815082


                     *******************************
                     * LOEWDIN POPULATION ANALYSIS *
                     *******************************

----------------------
LOEWDIN ATOMIC CHARGES
----------------------
   0 C :   -0.029278
   1 C :   -0.085774
   2 C :   -0.087497
   3 C :   -0.029278
   4 C :   -0.085774
   5 H :    0.097325
   6 H :    0.096068
   7 H :    0.097324
   8 C :   -0.083908
   9 C :   -0.189697
  10 H :    0.091317
  11 H :    0.093262
  12 H :    0.098182
  13 C :   -0.083908
  14 H :    0.093262
  15 C :   -0.189697
  16 H :    0.091318
  17 H :    0.098182
  18 C :   -0.087497
  19 H :    0.096068

-------------------------------
LOEWDIN REDUCED ORBITAL CHARGES
-------------------------------
  0 C s       :     2.982732  s :     2.982732
      pz      :     1.071828  p :     3.046546
      px      :     0.903815
      py      :     1.070903
  1 C s       :     2.980679  s :     2.980679
      pz      :     1.105183  p :     3.105095
      px      :     0.936257
      py      :     1.063654
  2 C s       :     2.957211  s :     2.957211
      pz      :     1.111436  p :     3.130286
      px      :     0.893000
      py      :     1.125850
  3 C s       :     2.982732  s :     2.982732
      pz      :     1.071828  p :     3.046546
      px      :     0.903815
      py      :     1.070903
  4 C s       :     2.980679  s :     2.980679
      pz      :     1.105183  p :     3.105094
      px      :     0.936257
      py      :     1.063654
  5 H s       :     0.902675  s :     0.902675
  6 H s       :     0.903932  s :     0.903932
  7 H s       :     0.902676  s :     0.902676
  8 C s       :     2.946657  s :     2.946657
      pz      :     1.108941  p :     3.137252
      px      :     0.897306
      py      :     1.131004
  9 C s       :     2.944969  s :     2.944969
      pz      :     1.166038  p :     3.244728
      px      :     0.940846
      py      :     1.137843
 10 H s       :     0.908683  s :     0.908683
 11 H s       :     0.906738  s :     0.906738
 12 H s       :     0.901818  s :     0.901818
 13 C s       :     2.946656  s :     2.946656
      pz      :     1.108941  p :     3.137252
      px      :     0.897308
      py      :     1.131004
 14 H s       :     0.906738  s :     0.906738
 15 C s       :     2.944968  s :     2.944968
      pz      :     1.166038  p :     3.244729
      px      :     0.940847
      py      :     1.137843
 16 H s       :     0.908682  s :     0.908682
 17 H s       :     0.901818  s :     0.901818
 18 C s       :     2.957211  s :     2.957211
      pz      :     1.111436  p :     3.130286
      px      :     0.893000
      py      :     1.125850
 19 H s       :     0.903932  s :     0.903932


                      *****************************
                      * MAYER POPULATION ANALYSIS *
                      *****************************

  NA   - Mulliken gross atomic population
  ZA   - Total nuclear charge
  QA   - Mulliken gross atomic charge
  VA   - Mayer's total valence
  BVA  - Mayer's bonded valence
  FA   - Mayer's free valence

  ATOM       NA         ZA         QA         VA         BVA        FA
  0 C      6.0155     6.0000    -0.0155     3.7444     3.7444     0.0000
  1 C      6.1905     6.0000    -0.1905     3.7790     3.7790     0.0000
  2 C      6.1802     6.0000    -0.1802     3.7646     3.7646    -0.0000
  3 C      6.0155     6.0000    -0.0155     3.7444     3.7444    -0.0000
  4 C      6.1905     6.0000    -0.1905     3.7790     3.7790     0.0000
  5 H      0.8147     1.0000     0.1853     0.9369     0.9369    -0.0000
  6 H      0.8151     1.0000     0.1849     0.9352     0.9352     0.0000
  7 H      0.8147     1.0000     0.1853     0.9369     0.9369    -0.0000
  8 C      6.1702     6.0000    -0.1702     3.7831     3.7831    -0.0000
  9 C      6.3736     6.0000    -0.3736     3.7851     3.7851    -0.0000
 10 H      0.8151     1.0000     0.1849     0.9335     0.9335    -0.0000
 11 H      0.8152     1.0000     0.1848     0.9305     0.9305     0.0000
 12 H      0.8098     1.0000     0.1902     0.9288     0.9288    -0.0000
 13 C      6.1702     6.0000    -0.1702     3.7831     3.7831    -0.0000
 14 H      0.8152     1.0000     0.1848     0.9305     0.9305     0.0000
 15 C      6.3736     6.0000    -0.3736     3.7851     3.7851    -0.0000
 16 H      0.8151     1.0000     0.1849     0.9335     0.9335    -0.0000
 17 H      0.8098     1.0000     0.1902     0.9288     0.9288    -0.0000
 18 C      6.1802     6.0000    -0.1802     3.7646     3.7646     0.0000
 19 H      0.8151     1.0000     0.1849     0.9352     0.9352     0.0000

  Mayer bond orders larger than 0.1
B(  0-C ,  1-C ) :   1.3434 B(  0-C , 13-C ) :   1.0540 B(  0-C , 18-C ) :   1.3204 
B(  1-C ,  2-C ) :   1.4350 B(  1-C ,  5-H ) :   0.9226 B(  2-C ,  3-C ) :   1.3204 
B(  2-C ,  6-H ) :   0.9279 B(  3-C ,  4-C ) :   1.3434 B(  3-C ,  8-C ) :   1.0540 
B(  4-C ,  7-H ) :   0.9226 B(  4-C , 18-C ) :   1.4350 B(  8-C ,  9-C ) :   1.8375 
B(  8-C , 11-H ) :   0.9233 B(  9-C , 10-H ) :   0.9248 B(  9-C , 12-H ) :   0.9275 
B( 13-C , 14-H ) :   0.9233 B( 13-C , 15-C ) :   1.8375 B( 15-C , 16-H ) :   0.9248 
B( 15-C , 17-H ) :   0.9275 B( 18-C , 19-H ) :   0.9279 

-------
TIMINGS
-------

Total SCF time: 0 hours 0 min 55 sec 

Total time                  ....      55.475 sec
Sum of individual times     ....      58.419 sec  (105.3%)

Fock matrix formation       ....      48.280 sec  ( 87.0%)
  Coulomb formation         ....      28.744 sec  ( 59.5% of F)
  XC integration            ....      19.151 sec  ( 39.7% of F)
    Basis function eval.    ....       4.943 sec  ( 25.8% of XC)
    Density eval.           ....       3.390 sec  ( 17.7% of XC)
    XC-Functional eval.     ....       1.101 sec  (  5.7% of XC)
    XC-Potential eval.      ....       4.972 sec  ( 26.0% of XC)
Diagonalization             ....       0.126 sec  (  0.2%)
Density matrix formation    ....       0.006 sec  (  0.0%)
Population analysis         ....       0.054 sec  (  0.1%)
Initial guess               ....       2.749 sec  (  5.0%)
Orbital Transformation      ....       0.000 sec  (  0.0%)
Orbital Orthonormalization  ....       0.000 sec  (  0.0%)
DIIS solution               ....       0.947 sec  (  1.7%)
Grid generation             ....       6.258 sec  ( 11.3%)

-------------------------   ----------------
FINAL SINGLE POINT ENERGY     -384.666634398
-------------------------   ----------------


                            ***************************************
                            *     ORCA property calculations      *
                            ***************************************

                                    ---------------------
                                    Active property flags
                                    ---------------------
   (+) Dipole Moment


------------------------------------------------------------------------------
                       ORCA ELECTRIC PROPERTIES CALCULATION
------------------------------------------------------------------------------

Dipole Moment Calculation                       ... on
Quadrupole Moment Calculation                   ... off
Polarizability Calculation                      ... off
GBWName                                         ... /u/qb/adamlt/orca/cclib/dvb_freq.gbw
Electron density file                           ... /u/qb/adamlt/orca/cclib/dvb_freq.scfp.tmp

-------------
DIPOLE MOMENT
-------------
                                X             Y             Z
Electronic contribution:     -0.00000      -0.00000      -0.00819
Nuclear contribution   :      0.00000       0.00000       0.00895
                        -----------------------------------------
Total Dipole Moment    :     -0.00000       0.00000       0.00076
                        -----------------------------------------
Magnitude (a.u.)       :      0.00076
Magnitude (Debye)      :      0.00192


----------------------------------------------------------------------------
                           ORCA NUMERICAL FREQUENCIES
----------------------------------------------------------------------------

Number of atoms                ... 20
Central differences            ... NOT used
Number of displacements        ... 60
Numerical increment            ...  0.005 bohr
IR-spectrum generation         ... on
Raman-spectrum generation      ... off

The output will be reduced. Please look at the following files:
SCF program output             ... >/u/qb/adamlt/orca/cclib/dvb_freq.lastscf
Integral program output        ... >/u/qb/adamlt/orca/cclib/dvb_freq.lastint
Gradient program output        ... >/u/qb/adamlt/orca/cclib/dvb_freq.lastgrad
Dipole moment program output   ... >/u/qb/adamlt/orca/cclib/dvb_freq.lastmom


                <<<Energy and Gradient at the input geometry>>>
                     <<<Displacing   1/coordinate 1 (+)>>>
                     <<<Displacing   1/coordinate 2 (+)>>>
                     <<<Displacing   1/coordinate 3 (+)>>>
                     <<<Displacing   2/coordinate 1 (+)>>>
                     <<<Displacing   2/coordinate 2 (+)>>>
                     <<<Displacing   2/coordinate 3 (+)>>>
                     <<<Displacing   3/coordinate 1 (+)>>>
                     <<<Displacing   3/coordinate 2 (+)>>>
                     <<<Displacing   3/coordinate 3 (+)>>>
                     <<<Displacing   4/coordinate 1 (+)>>>
                     <<<Displacing   4/coordinate 2 (+)>>>
                     <<<Displacing   4/coordinate 3 (+)>>>
                     <<<Displacing   5/coordinate 1 (+)>>>
                     <<<Displacing   5/coordinate 2 (+)>>>
                     <<<Displacing   5/coordinate 3 (+)>>>
                     <<<Displacing   6/coordinate 1 (+)>>>
                     <<<Displacing   6/coordinate 2 (+)>>>
                     <<<Displacing   6/coordinate 3 (+)>>>
                     <<<Displacing   7/coordinate 1 (+)>>>
                     <<<Displacing   7/coordinate 2 (+)>>>
                     <<<Displacing   7/coordinate 3 (+)>>>
                     <<<Displacing   8/coordinate 1 (+)>>>
                     <<<Displacing   8/coordinate 2 (+)>>>
                     <<<Displacing   8/coordinate 3 (+)>>>
                     <<<Displacing   9/coordinate 1 (+)>>>
                     <<<Displacing   9/coordinate 2 (+)>>>
                     <<<Displacing   9/coordinate 3 (+)>>>
                     <<<Displacing  10/coordinate 1 (+)>>>
                     <<<Displacing  10/coordinate 2 (+)>>>
                     <<<Displacing  10/coordinate 3 (+)>>>
                     <<<Displacing  11/coordinate 1 (+)>>>
                     <<<Displacing  11/coordinate 2 (+)>>>
                     <<<Displacing  11/coordinate 3 (+)>>>
                     <<<Displacing  12/coordinate 1 (+)>>>
                     <<<Displacing  12/coordinate 2 (+)>>>
                     <<<Displacing  12/coordinate 3 (+)>>>
                     <<<Displacing  13/coordinate 1 (+)>>>
                     <<<Displacing  13/coordinate 2 (+)>>>
                     <<<Displacing  13/coordinate 3 (+)>>>
                     <<<Displacing  14/coordinate 1 (+)>>>
                     <<<Displacing  14/coordinate 2 (+)>>>
                     <<<Displacing  14/coordinate 3 (+)>>>
                     <<<Displacing  15/coordinate 1 (+)>>>
                     <<<Displacing  15/coordinate 2 (+)>>>
                     <<<Displacing  15/coordinate 3 (+)>>>
                     <<<Displacing  16/coordinate 1 (+)>>>
                     <<<Displacing  16/coordinate 2 (+)>>>
                     <<<Displacing  16/coordinate 3 (+)>>>
                     <<<Displacing  17/coordinate 1 (+)>>>
                     <<<Displacing  17/coordinate 2 (+)>>>
                     <<<Displacing  17/coordinate 3 (+)>>>
                     <<<Displacing  18/coordinate 1 (+)>>>
                     <<<Displacing  18/coordinate 2 (+)>>>
                     <<<Displacing  18/coordinate 3 (+)>>>
                     <<<Displacing  19/coordinate 1 (+)>>>
                     <<<Displacing  19/coordinate 2 (+)>>>
                     <<<Displacing  19/coordinate 3 (+)>>>
                     <<<Displacing  20/coordinate 1 (+)>>>
                     <<<Displacing  20/coordinate 2 (+)>>>
                     <<<Displacing  20/coordinate 3 (+)>>>

-----------------------
VIBRATIONAL FREQUENCIES
-----------------------

   0:         0.00 cm**-1
   1:         0.00 cm**-1
   2:         0.00 cm**-1
   3:         0.00 cm**-1
   4:         0.00 cm**-1
   5:         0.00 cm**-1
   6:       341.56 cm**-1
   7:       356.51 cm**-1
   8:       356.98 cm**-1
   9:       496.21 cm**-1
  10:       549.24 cm**-1
  11:       638.82 cm**-1
  12:       652.63 cm**-1
  13:       680.32 cm**-1
  14:       787.90 cm**-1
  15:       853.42 cm**-1
  16:       858.58 cm**-1
  17:       876.03 cm**-1
  18:       936.15 cm**-1
  19:      1022.71 cm**-1
  20:      1081.98 cm**-1
  21:      1163.69 cm**-1
  22:      1183.59 cm**-1
  23:      1193.98 cm**-1
  24:      1202.36 cm**-1
  25:      1219.78 cm**-1
  26:      1235.41 cm**-1
  27:      1273.80 cm**-1
  28:      1277.74 cm**-1
  29:      1285.30 cm**-1
  30:      1300.20 cm**-1
  31:      1312.60 cm**-1
  32:      1313.53 cm**-1
  33:      1340.63 cm**-1
  34:      1347.89 cm**-1
  35:      1350.66 cm**-1
  36:      1357.93 cm**-1
  37:      1375.26 cm**-1
  38:      1414.37 cm**-1
  39:      1414.57 cm**-1
  40:      1456.98 cm**-1
  41:      1460.05 cm**-1
  42:      1596.00 cm**-1
  43:      1599.46 cm**-1
  44:      1653.42 cm**-1
  45:      1685.31 cm**-1
  46:      1702.29 cm**-1
  47:      1765.26 cm**-1
  48:      1775.22 cm**-1
  49:      1784.12 cm**-1
  50:      3506.95 cm**-1
  51:      3525.01 cm**-1
  52:      3527.68 cm**-1
  53:      3529.01 cm**-1
  54:      3539.72 cm**-1
  55:      3548.45 cm**-1
  56:      3557.16 cm**-1
  57:      3573.91 cm**-1
  58:      3656.85 cm**-1
  59:      3670.20 cm**-1


------------
NORMAL MODES
------------

These modes are the cartesian displacements weighted by the diagonal matrix
M(i,i)=1/sqrt(m[i]) where m[i] is the mass of the displaced atom
Thus, these vectors are normalized but *not* orthogonal

                  0          1          2          3          4          5    
      0       0.000000   0.000000   0.000000   0.000000   0.000000   0.000000
      1       0.000000   0.000000   0.000000   0.000000   0.000000   0.000000
      2       0.000000   0.000000   0.000000   0.000000   0.000000   0.000000
      3       0.000000   0.000000   0.000000   0.000000   0.000000   0.000000
      4       0.000000   0.000000   0.000000   0.000000   0.000000   0.000000
      5       0.000000   0.000000   0.000000   0.000000   0.000000   0.000000
      6       0.000000   0.000000   0.000000   0.000000   0.000000   0.000000
      7       0.000000   0.000000   0.000000   0.000000   0.000000   0.000000
      8       0.000000   0.000000   0.000000   0.000000   0.000000   0.000000
      9       0.000000   0.000000   0.000000   0.000000   0.000000   0.000000
     10       0.000000   0.000000   0.000000   0.000000   0.000000   0.000000
     11       0.000000   0.000000   0.000000   0.000000   0.000000   0.000000
     12       0.000000   0.000000   0.000000   0.000000   0.000000   0.000000
     13       0.000000   0.000000   0.000000   0.000000   0.000000   0.000000
     14       0.000000   0.000000   0.000000   0.000000   0.000000   0.000000
     15       0.000000   0.000000   0.000000   0.000000   0.000000   0.000000
     16       0.000000   0.000000   0.000000   0.000000   0.000000   0.000000
     17       0.000000   0.000000   0.000000   0.000000   0.000000   0.000000
     18       0.000000   0.000000   0.000000   0.000000   0.000000   0.000000
     19       0.000000   0.000000   0.000000   0.000000   0.000000   0.000000
     20       0.000000   0.000000   0.000000   0.000000   0.000000   0.000000
     21       0.000000   0.000000   0.000000   0.000000   0.000000   0.000000
     22       0.000000   0.000000   0.000000   0.000000   0.000000   0.000000
     23       0.000000   0.000000   0.000000   0.000000   0.000000   0.000000
     24       0.000000   0.000000   0.000000   0.000000   0.000000   0.000000
     25       0.000000   0.000000   0.000000   0.000000   0.000000   0.000000
     26       0.000000   0.000000   0.000000   0.000000   0.000000   0.000000
     27       0.000000   0.000000   0.000000   0.000000   0.000000   0.000000
     28       0.000000   0.000000   0.000000   0.000000   0.000000   0.000000
     29       0.000000   0.000000   0.000000   0.000000   0.000000   0.000000
     30       0.000000   0.000000   0.000000   0.000000   0.000000   0.000000
     31       0.000000   0.000000   0.000000   0.000000   0.000000   0.000000
     32       0.000000   0.000000   0.000000   0.000000   0.000000   0.000000
     33       0.000000   0.000000   0.000000   0.000000   0.000000   0.000000
     34       0.000000   0.000000   0.000000   0.000000   0.000000   0.000000
     35       0.000000   0.000000   0.000000   0.000000   0.000000   0.000000
     36       0.000000   0.000000   0.000000   0.000000   0.000000   0.000000
     37       0.000000   0.000000   0.000000   0.000000   0.000000   0.000000
     38       0.000000   0.000000   0.000000   0.000000   0.000000   0.000000
     39       0.000000   0.000000   0.000000   0.000000   0.000000   0.000000
     40       0.000000   0.000000   0.000000   0.000000   0.000000   0.000000
     41       0.000000   0.000000   0.000000   0.000000   0.000000   0.000000
     42       0.000000   0.000000   0.000000   0.000000   0.000000   0.000000
     43       0.000000   0.000000   0.000000   0.000000   0.000000   0.000000
     44       0.000000   0.000000   0.000000   0.000000   0.000000   0.000000
     45       0.000000   0.000000   0.000000   0.000000   0.000000   0.000000
     46       0.000000   0.000000   0.000000   0.000000   0.000000   0.000000
     47       0.000000   0.000000   0.000000   0.000000   0.000000   0.000000
     48       0.000000   0.000000   0.000000   0.000000   0.000000   0.000000
     49       0.000000   0.000000   0.000000   0.000000   0.000000   0.000000
     50       0.000000   0.000000   0.000000   0.000000   0.000000   0.000000
     51       0.000000   0.000000   0.000000   0.000000   0.000000   0.000000
     52       0.000000   0.000000   0.000000   0.000000   0.000000   0.000000
     53       0.000000   0.000000   0.000000   0.000000   0.000000   0.000000
     54       0.000000   0.000000   0.000000   0.000000   0.000000   0.000000
     55       0.000000   0.000000   0.000000   0.000000   0.000000   0.000000
     56       0.000000   0.000000   0.000000   0.000000   0.000000   0.000000
     57       0.000000   0.000000   0.000000   0.000000   0.000000   0.000000
     58       0.000000   0.000000   0.000000   0.000000   0.000000   0.000000
     59       0.000000   0.000000   0.000000   0.000000   0.000000   0.000000
                  6          7          8          9         10         11    
      0      -0.037651  -0.043554  -0.147597  -0.027016  -0.071149   0.086049
      1      -0.129337   0.002029   0.005299  -0.206730   0.021624   0.099575
      2       0.000210   0.101227  -0.033530  -0.000066  -0.001339  -0.000653
      3      -0.065926   0.009410   0.026920   0.039231  -0.186925   0.350619
      4      -0.165098  -0.000760  -0.007866  -0.224455   0.025677   0.049728
      5      -0.000030   0.183071  -0.060876   0.000150  -0.001146  -0.000510
      6      -0.037570   0.028307   0.094523   0.154228  -0.168584   0.133114
      7      -0.180692   0.012171   0.034566   0.039051   0.028390  -0.352173
      8       0.000091   0.180904  -0.060306   0.000119   0.000415   0.000027
      9      -0.045322   0.042999   0.144623   0.027073  -0.074168  -0.087391
     10      -0.126777  -0.002708  -0.009980   0.205991   0.018575  -0.097583
     11       0.000387   0.101191  -0.033701   0.000050   0.001270   0.000908
     12      -0.066279  -0.010693  -0.032662  -0.041873  -0.184623  -0.351671
     13      -0.165371  -0.000185   0.001465   0.228431   0.021918  -0.048962
     14       0.001128   0.183046  -0.060982   0.000466   0.001265   0.000773
     15      -0.064553   0.018932   0.058659   0.091606  -0.180253   0.269736
     16      -0.148003  -0.018661  -0.065860  -0.298149   0.044106   0.126704
     17      -0.000029   0.196659  -0.065391   0.000826  -0.001647  -0.001219
     18      -0.014081   0.020474   0.071127   0.294518  -0.191821   0.063128
     19      -0.166678   0.010703   0.030462   0.043344   0.020358  -0.325901
     20      -0.000064   0.191648  -0.064167   0.000480   0.000783  -0.000849
     21      -0.064108  -0.020172  -0.064214  -0.093598  -0.177216  -0.272381
     22      -0.152198   0.017681   0.059759   0.302295   0.035947  -0.130028
     23       0.001216   0.196609  -0.065602   0.001164   0.001653   0.000491
     24       0.094290   0.067062   0.225233  -0.128007   0.125261  -0.023289
     25       0.161093  -0.021468  -0.070097   0.025050   0.082146   0.024728
     26      -0.000649  -0.160885   0.053683  -0.000272   0.000517   0.000362
     27       0.022012   0.089468   0.298068  -0.059212   0.275648   0.000454
     28       0.282168  -0.047918  -0.158049  -0.146810  -0.130458  -0.048261
     29      -0.000902  -0.272729   0.090730  -0.000414  -0.000761  -0.000549
     30       0.002514   0.084439   0.280991  -0.002292   0.354959   0.029210
     31       0.291661  -0.049688  -0.164786  -0.159002  -0.151661  -0.053498
     32      -0.000540  -0.274757   0.091134  -0.000134  -0.000990  -0.001331
     33       0.200808   0.048077   0.162399  -0.241365   0.074619  -0.024536
     34       0.127248  -0.018298  -0.059214   0.041664   0.074965   0.025448
     35      -0.000564  -0.167027   0.055590  -0.000026   0.000659   0.000107
     36       0.046927   0.079493   0.264049  -0.107954   0.193398  -0.029412
     37       0.325593  -0.050854  -0.166880  -0.224520  -0.210434  -0.089885
     38      -0.000972  -0.322471   0.107437  -0.000142  -0.001006  -0.001453
     39       0.105120  -0.065837  -0.219267   0.130684   0.127320   0.022033
     40       0.157000   0.022377   0.076384  -0.025018   0.081083  -0.020198
     41      -0.000275  -0.160866   0.053745  -0.000252  -0.000774  -0.000029
     42       0.211306  -0.046102  -0.152031   0.243585   0.074188   0.020387
     43       0.124838   0.019331   0.065270  -0.042246   0.075283  -0.021367
     44      -0.000512  -0.167019   0.055623  -0.000080  -0.000981  -0.000663
     45       0.033853  -0.087848  -0.291502   0.062683   0.277290   0.002103
     46       0.276480   0.049913   0.170019   0.143768  -0.136309   0.044749
     47      -0.000711  -0.272768   0.090576  -0.000269   0.000800   0.000582
     48       0.012244  -0.083557  -0.277015   0.006641   0.358169  -0.022826
     49       0.282197   0.050997   0.174487   0.153765  -0.155480   0.048407
     50      -0.001150  -0.274856   0.090872   0.000006   0.001080   0.000235
     51       0.055750  -0.078240  -0.258414   0.109359   0.195688   0.027713
     52       0.319345   0.051812   0.175956   0.221179  -0.212891   0.081353
     53      -0.001002  -0.322480   0.107292  -0.000027   0.001096   0.000151
     54      -0.033927  -0.029448  -0.099166  -0.157766  -0.163413  -0.131938
     55      -0.179613  -0.013528  -0.042647  -0.038852   0.026039   0.349313
     56       0.000956   0.180921  -0.060216   0.000269  -0.000247  -0.000404
     57      -0.012648  -0.021735  -0.075704  -0.300772  -0.185252  -0.062012
     58      -0.168144  -0.012112  -0.038405  -0.043427   0.018856   0.327858
     59       0.001171   0.191672  -0.064033   0.000525  -0.000657  -0.001524
                 12         13         14         15         16         17    
      0       0.000089  -0.152204  -0.045487   0.000549  -0.039662  -0.000072
      1      -0.000417   0.055635   0.046974  -0.000335   0.015722   0.000091
      2       0.280752   0.000375   0.000418  -0.089183  -0.000761   0.080150
      3      -0.000157   0.100284   0.074577  -0.001016   0.151030  -0.000000
      4       0.000625   0.050964  -0.055808  -0.001997   0.231589   0.000278
      5       0.258191   0.000516   0.000622   0.073682   0.001788   0.018963
      6      -0.001434   0.146491   0.078971  -0.000711   0.061636   0.000025
      7      -0.001072   0.106411  -0.086647  -0.002216   0.238619  -0.000659
      8      -0.076853  -0.000283  -0.000081   0.044290  -0.001576  -0.162715
      9      -0.000779   0.152683  -0.041263  -0.000598   0.042548  -0.000027
     10      -0.000450  -0.054609   0.046838   0.000404  -0.016147   0.000071
     11      -0.280751  -0.000418  -0.000242  -0.089211  -0.001003  -0.080127
     12      -0.000980  -0.101394   0.073685   0.001230  -0.154042   0.000380
     13       0.000822  -0.050455  -0.060789   0.001914  -0.230940   0.000496
     14      -0.258188  -0.000387  -0.000654   0.073673   0.001495  -0.018974
     15      -0.000728   0.183940   0.122103  -0.001261   0.157784  -0.000403
     16       0.001519  -0.096429  -0.141435  -0.001355   0.200285   0.000874
     17       0.361596  -0.000403   0.000901   0.143822   0.001424   0.066140
     18      -0.002267   0.109281   0.163217   0.000429  -0.049063   0.000020
     19      -0.001077   0.100194  -0.076496  -0.002018   0.223566  -0.000711
     20      -0.118274  -0.001385  -0.000521   0.078019  -0.003780  -0.233458
     21      -0.000860  -0.185287   0.118015   0.001497  -0.163481   0.000134
     22       0.000864   0.094705  -0.139996   0.001136  -0.199859   0.000887
     23      -0.361569  -0.001611  -0.001102   0.143802   0.000969  -0.066161
     24       0.001057   0.025645  -0.133341   0.001417  -0.088140  -0.000401
     25       0.000548  -0.243472   0.240283  -0.001361   0.195842  -0.000363
     26      -0.064433  -0.000121   0.000177  -0.215029  -0.002667   0.205533
     27       0.001229  -0.152231   0.009867  -0.000264   0.000155   0.000282
     28      -0.000517   0.076992  -0.097558   0.000053  -0.039275   0.000230
     29       0.190086   0.000816   0.000198   0.152577   0.003455  -0.084579
     30       0.001487  -0.372902   0.260529  -0.002323   0.193748   0.000519
     31      -0.000949   0.121767  -0.145843  -0.000330  -0.075130   0.000955
     32       0.269091  -0.000303   0.000814   0.365773   0.006329  -0.340409
     33       0.001476   0.076332  -0.224651   0.002211  -0.175332  -0.000660
     34       0.000477  -0.224784   0.232205  -0.001038   0.188650  -0.000592
     35      -0.116251  -0.000940  -0.000116  -0.437455  -0.007880   0.480551
     36       0.000700  -0.008591  -0.158234   0.000653  -0.142777   0.000448
     37      -0.000698   0.255570  -0.328087   0.001712  -0.233952   0.000351
     38       0.278613   0.000476  -0.000472   0.251114   0.003144  -0.108529
     39       0.001582  -0.023243  -0.131440  -0.001895   0.092593  -0.000727
     40      -0.000282   0.241521   0.236242   0.001511  -0.205490  -0.000339
     41       0.064435  -0.000100   0.000045  -0.215078  -0.003054  -0.205475
     42       0.002274  -0.072916  -0.219296  -0.002875   0.179608  -0.001189
     43      -0.000312   0.225963   0.231778   0.001151  -0.200798  -0.000649
     44       0.116271  -0.000839   0.000523  -0.437587  -0.008778  -0.480434
     45       0.000846   0.152149   0.010497   0.000374  -0.001780   0.000456
     46      -0.000187  -0.076101  -0.096428   0.000026   0.042407   0.000285
     47      -0.190107   0.000287  -0.000386   0.152595   0.003581   0.084531
     48       0.000205   0.371211   0.258588   0.002924  -0.207672   0.001018
     49      -0.000494  -0.119115  -0.142554   0.000496   0.079537   0.001161
     50      -0.269133  -0.001286  -0.001499   0.365858   0.007093   0.340286
     51       0.000838   0.010679  -0.153042  -0.000652   0.145756   0.000535
     52       0.000385  -0.251171  -0.322455  -0.001852   0.244897   0.000304
     53      -0.278625  -0.000110   0.000446   0.251121   0.002938   0.108461
     54      -0.001516  -0.148062   0.076213   0.000870  -0.062983   0.000054
     55       0.000893  -0.107247  -0.095944   0.002020  -0.232796  -0.000276
     56       0.076868  -0.000062  -0.000042   0.044331  -0.001126   0.162701
     57      -0.002372  -0.113156   0.163085  -0.000091   0.045285  -0.000074
     58       0.000745  -0.102399  -0.086578   0.001878  -0.221604  -0.000362
     59       0.118283  -0.001017   0.000387   0.078093  -0.003038   0.233447
                 18         19         20         21         22         23    
      0      -0.000452   0.006933   0.001057  -0.000779  -0.068449   0.003329
      1       0.000282  -0.001136  -0.000522  -0.000284   0.022549  -0.001972
      2      -0.004167   0.000626  -0.220408  -0.065534   0.000813   0.044685
      3       0.000640  -0.116666   0.000956   0.001474   0.161806   0.001741
      4       0.000646  -0.208354   0.000512  -0.000261  -0.055176   0.000141
      5      -0.205712   0.000431   0.048065   0.048733  -0.000472   0.001507
      6       0.000254   0.083760  -0.000273  -0.001080  -0.126701  -0.000851
      7       0.000504   0.224871   0.000869   0.000679   0.055649   0.001568
      8       0.216264  -0.000497   0.056710  -0.021229   0.000089  -0.001176
      9       0.000467   0.007042  -0.000647  -0.000811  -0.062804  -0.003452
     10      -0.000228   0.000936   0.000666  -0.000273   0.016976   0.001661
     11      -0.004165  -0.000413  -0.220416   0.065488  -0.000645   0.044707
     12      -0.000304  -0.117812  -0.001097   0.001528   0.163343  -0.002185
     13      -0.000743  -0.205887  -0.000720  -0.000260  -0.053854   0.000228
     14      -0.205715  -0.000589   0.048085  -0.048729   0.000751   0.001483
     15       0.000717   0.064399   0.000804   0.003225   0.370290   0.001728
     16       0.000373  -0.473136   0.000881  -0.003042  -0.383987   0.000182
     17      -0.455222   0.001215   0.343593   0.227237  -0.005219  -0.132469
     18      -0.000287   0.333926   0.000037  -0.003506  -0.404185  -0.000939
     19       0.000754   0.220141   0.001116   0.000511   0.051766   0.001462
     20       0.449014  -0.000599   0.323582  -0.175077   0.001834  -0.124956
     21      -0.000098   0.057186  -0.001202   0.003418   0.362414  -0.002627
     22      -0.000552  -0.464535  -0.001200  -0.002930  -0.364563   0.001101
     23      -0.455204  -0.001511   0.343604  -0.227120   0.004939  -0.132513
     24      -0.000312   0.000535   0.000124   0.000042   0.003424   0.000439
     25       0.000733   0.002134  -0.000183  -0.000214  -0.010199  -0.001136
     26      -0.018974   0.000290   0.055510   0.050887  -0.000860  -0.051667
     27      -0.000128  -0.005712   0.000223   0.000165   0.017796   0.001036
     28      -0.000173  -0.000033   0.000018   0.000291   0.013593  -0.000298
     29       0.011060   0.000155  -0.012506  -0.002752  -0.000166   0.002730
     30       0.000621   0.008581  -0.000262   0.000555   0.047734  -0.003046
     31      -0.000381  -0.002197   0.000760  -0.000817   0.007997   0.001499
     32       0.031299  -0.000269  -0.288983   0.376715  -0.007445  -0.379814
     33      -0.000647  -0.016325  -0.001084   0.000948   0.032119   0.000136
     34       0.000698   0.003892  -0.000263   0.000126  -0.015177  -0.001402
     35      -0.020337   0.000626   0.337867  -0.200327   0.003846   0.137349
     36      -0.000757  -0.013287   0.000064   0.000887   0.036167   0.003669
     37      -0.001018  -0.012000   0.000263   0.000563   0.039275   0.004145
     38       0.013448   0.000103   0.149287  -0.475438   0.010005   0.546624
     39       0.000275   0.000225  -0.000091   0.000004   0.005040  -0.000532
     40      -0.000732   0.004074   0.000284  -0.000273  -0.013187   0.001091
     41      -0.018982  -0.000379   0.055526  -0.050862   0.000537  -0.051687
     42       0.000596  -0.015550   0.001028   0.001036   0.033034   0.000157
     43      -0.000706   0.005526   0.000485   0.000154  -0.018063   0.001422
     44      -0.020337  -0.000903   0.337812   0.200324  -0.002667   0.137430
     45       0.000130  -0.005790  -0.000372   0.000176   0.019178  -0.001039
     46       0.000224   0.000864  -0.000076   0.000332   0.013478   0.000320
     47       0.011063  -0.000139  -0.012505   0.002751   0.000227   0.002726
     48      -0.000551   0.011887  -0.000114   0.000349   0.041896   0.003120
     49       0.000431  -0.001879  -0.001011  -0.001057   0.008990  -0.001800
     50       0.031312   0.000600  -0.288884  -0.376608   0.004054  -0.379915
     51       0.000741  -0.015005  -0.000158   0.001246   0.043615  -0.003327
     52       0.001055  -0.013527  -0.000414   0.000671   0.048092  -0.004175
     53       0.013456  -0.000112   0.149160   0.475281  -0.006451   0.546827
     54      -0.000574   0.084469   0.000207  -0.001100  -0.126347   0.001381
     55      -0.000501   0.225666  -0.000808   0.000707   0.058022  -0.001677
     56       0.216271   0.000527   0.056702   0.021235  -0.000176  -0.001170
     57      -0.000273   0.335060  -0.000161  -0.003604  -0.399689   0.002713
     58      -0.000791   0.223744  -0.001093   0.000536   0.055499  -0.001562
     59       0.449008   0.000697   0.323560   0.175149  -0.004050  -0.124875
                 24         25         26         27         28         29    
      0      -0.254953   0.001522   0.226441  -0.064531   0.001684  -0.131341
      1       0.126417  -0.001095  -0.086795   0.046585   0.003206  -0.197832
      2      -0.000135   0.115172  -0.001582  -0.000541   0.018644   0.000165
      3      -0.153208   0.000015  -0.018260   0.057078  -0.000124   0.032504
      4       0.006997  -0.000141  -0.031116  -0.067777  -0.001614   0.096940
      5       0.001528  -0.021790   0.000196   0.000659  -0.079059  -0.002733
      6       0.081114  -0.000569  -0.073391  -0.092126  -0.001200   0.054714
      7      -0.128578   0.000602   0.052966   0.010735  -0.001214   0.080007
      8       0.001919   0.042077  -0.000705   0.000417  -0.059751  -0.002345
      9       0.260030   0.001518   0.223900   0.073184   0.001961  -0.124581
     10      -0.121584  -0.000931  -0.084488  -0.045842   0.003025  -0.199982
     11      -0.000250  -0.115181   0.001867  -0.000249  -0.018635  -0.000119
     12       0.144437  -0.000176  -0.016049  -0.061574  -0.000667   0.032423
     13      -0.009677  -0.000153  -0.034626   0.068499  -0.001173   0.096804
     14       0.001807   0.021795  -0.000207  -0.000082   0.079054   0.002356
     15      -0.189492  -0.000497  -0.117546   0.271113   0.000444   0.053461
     16       0.066748   0.000858   0.133954  -0.401082  -0.002814   0.065414
     17      -0.006478  -0.440574   0.006667  -0.003091   0.469637   0.016498
     18       0.133560  -0.003464  -0.447237  -0.478850  -0.003095   0.071779
     19      -0.126261   0.000710   0.038972   0.002059  -0.000906   0.079117
     20      -0.012057   0.334185  -0.005383  -0.004092   0.516306   0.018861
     21       0.172839  -0.001226  -0.105523  -0.279839  -0.000918   0.050688
     22      -0.054975   0.000966   0.114883   0.407135  -0.000181   0.070868
     23      -0.006144   0.440572  -0.007167   0.000109  -0.469638  -0.013246
     24      -0.022834  -0.000267  -0.015322  -0.010210  -0.000105   0.007215
     25       0.095051   0.000427   0.062155   0.015978  -0.000078   0.002824
     26      -0.002339   0.041801  -0.000645   0.000076  -0.003433  -0.000309
     27      -0.080664  -0.000370  -0.055986  -0.002259   0.000212  -0.016382
     28       0.013278   0.000213   0.009315   0.006503  -0.000503   0.036773
     29       0.001069   0.001177   0.000022   0.000826   0.006287  -0.000534
     30       0.211659   0.001933   0.165139   0.041563  -0.005681   0.405151
     31      -0.041282  -0.000740  -0.030635  -0.000292   0.000453  -0.037544
     32      -0.029168   0.200525  -0.003461  -0.004957   0.035314   0.002549
     33      -0.032200  -0.000113  -0.053534  -0.037195  -0.004361   0.301961
     34       0.091388   0.000457   0.061969   0.016906   0.000454  -0.033422
     35       0.003946   0.022309   0.000798  -0.001724  -0.006989   0.001708
     36      -0.337955  -0.001617  -0.267761  -0.056528   0.003582  -0.258720
     37      -0.337853  -0.002038  -0.278723  -0.065014   0.003943  -0.286901
     38       0.020097  -0.369109   0.004468  -0.002622  -0.035045   0.003330
     39       0.025383  -0.000317  -0.015834   0.010656  -0.000031   0.006723
     40      -0.095295   0.000413   0.063305  -0.014802  -0.000102   0.001231
     41      -0.002448  -0.041799   0.000640   0.000006   0.003430   0.000278
     42       0.025475   0.000079  -0.055513   0.032283  -0.004034   0.301133
     43      -0.092422   0.000435   0.064566  -0.015488   0.000425  -0.035592
     44       0.005545  -0.022271  -0.002283  -0.001460   0.006979  -0.002439
     45       0.080659  -0.000405  -0.056683   0.000339   0.000152  -0.014627
     46      -0.012886   0.000279   0.009458  -0.006294  -0.000550   0.036365
     47       0.001086  -0.001182  -0.000058   0.000921  -0.006290   0.000934
     48      -0.224890   0.002308   0.167246  -0.043081  -0.005835   0.404890
     49       0.043484  -0.000912  -0.031149   0.000385   0.000387  -0.037409
     50      -0.030143  -0.200455   0.003056  -0.004546  -0.035305  -0.004414
     51       0.335987  -0.001616  -0.270983   0.049085   0.003566  -0.248644
     52       0.339508  -0.002264  -0.284556   0.058179   0.003942  -0.278622
     53       0.020212   0.369112  -0.002788  -0.003334   0.035108  -0.005325
     54      -0.077661  -0.000373  -0.077198   0.091783  -0.000564   0.055560
     55       0.125186   0.000539   0.054071  -0.013348  -0.001393   0.081458
     56       0.001816  -0.042081   0.000618   0.000031   0.059750   0.002182
     57      -0.122432  -0.002669  -0.463461   0.473570   0.000615   0.083569
     58       0.124639   0.000699   0.040966  -0.005616  -0.000985   0.081967
     59      -0.014091  -0.334159   0.004354   0.001109  -0.516337  -0.016027
                 30         31         32         33         34         35    
      0       0.001087   0.000540  -0.001923  -0.077832  -0.000579   0.000575
      1      -0.000211   0.000554   0.000123  -0.030054   0.001360  -0.000680
      2      -0.074217   0.002519   0.007726  -0.000624  -0.003637   0.020410
      3       0.000032  -0.000194   0.000334  -0.012004  -0.000095   0.000383
      4      -0.000021  -0.000290  -0.000199   0.028735  -0.000061   0.000116
      5       0.081748  -0.001271  -0.011149  -0.000400  -0.026469  -0.076050
      6       0.000270  -0.000112  -0.000579  -0.008064  -0.000120  -0.000177
      7       0.000530  -0.000245  -0.000384  -0.037570  -0.000410   0.000349
      8       0.051494   0.000197  -0.007024   0.001111   0.024408   0.066865
      9      -0.001328   0.000567   0.001782   0.077047  -0.000476  -0.000369
     10      -0.000240   0.000583  -0.000303   0.029742   0.001045   0.000289
     11      -0.074213  -0.002293   0.007794  -0.000541   0.003626   0.020407
     12      -0.000068  -0.000188  -0.000269   0.012689  -0.000009  -0.000308
     13       0.000277  -0.000299   0.000283  -0.028729   0.000001  -0.000131
     14       0.081753   0.000954  -0.011184  -0.000364   0.026472  -0.076036
     15       0.000330  -0.000396   0.000814  -0.054248   0.000852  -0.000059
     16      -0.000307   0.000021  -0.000696   0.098191  -0.001613   0.000610
     17      -0.514655   0.001492   0.075013   0.003039   0.109065   0.401078
     18       0.001249  -0.000150  -0.002831  -0.140801   0.001453  -0.000476
     19       0.000303  -0.000245  -0.000356  -0.040829  -0.000439   0.000133
     20      -0.375799  -0.001798   0.046498  -0.005807  -0.142496  -0.410774
     21       0.000328  -0.000389  -0.000799   0.054207   0.000829  -0.000799
     22       0.000510  -0.000003   0.000707  -0.097032  -0.001144   0.000000
     23      -0.514725   0.000608   0.075033   0.002822  -0.109093   0.401046
     24      -0.000342  -0.000273   0.000818  -0.044284   0.001059   0.000417
     25      -0.000294  -0.000100   0.000180   0.028167  -0.000170   0.000096
     26      -0.003881  -0.004039  -0.000496   0.000860  -0.098447  -0.062132
     27       0.000432   0.000359  -0.000854   0.036558  -0.000827  -0.000173
     28       0.000038   0.000148   0.000781  -0.037814   0.000038  -0.000171
     29       0.000817  -0.095273  -0.093889  -0.001118   0.063045   0.037285
     30       0.000739  -0.001916   0.002480  -0.348136   0.002065  -0.000626
     31      -0.000227  -0.001187  -0.001686   0.030016  -0.000369  -0.000042
     32       0.117242   0.563372   0.541473   0.003476  -0.004584  -0.003965
     33       0.001256  -0.002204  -0.000046  -0.356796   0.003704   0.000327
     34      -0.000997  -0.000381   0.000117   0.061942  -0.001680  -0.000617
     35       0.225816   0.287999   0.244606  -0.003750   0.592756   0.351727
     36       0.001663   0.000469  -0.006911   0.308366  -0.002703   0.000242
     37       0.001371   0.000825  -0.006510   0.326569  -0.003017   0.000143
     38      -0.119499   0.322245   0.341462   0.004394  -0.318066  -0.175773
     39       0.000407  -0.000337  -0.000705   0.043711   0.001346  -0.000817
     40       0.000291  -0.000143  -0.000148  -0.028658  -0.000138   0.000023
     41      -0.003873   0.004041  -0.000630   0.000883   0.098495  -0.062096
     42      -0.000249  -0.002368   0.000896   0.350470   0.003906  -0.001716
     43       0.000987  -0.000526  -0.000052  -0.062869  -0.001932   0.001012
     44       0.225691  -0.281448   0.252496  -0.003863  -0.592982   0.351466
     45      -0.000576   0.000473   0.000678  -0.035684  -0.000983   0.000468
     46       0.000064   0.000232  -0.000805   0.038016  -0.000096   0.000132
     47       0.000842   0.092699  -0.096421  -0.001137  -0.063100   0.037274
     48       0.000543  -0.002183  -0.001453   0.350431   0.001513  -0.000083
     49       0.000173  -0.001538   0.002061  -0.030107  -0.000377   0.000150
     50       0.117078  -0.548633   0.556586   0.003660   0.004728  -0.004028
     51      -0.002735   0.000176   0.006735  -0.303484  -0.002363   0.000732
     52      -0.002443   0.000726   0.006128  -0.324014  -0.002873   0.000948
     53      -0.119575  -0.312819   0.349941   0.004549   0.318326  -0.175702
     54      -0.000130  -0.000079   0.000582   0.007917  -0.000177   0.000170
     55      -0.000374  -0.000228   0.000460   0.037873  -0.000402  -0.000221
     56       0.051505  -0.000400  -0.007016   0.001049  -0.024407   0.066851
     57      -0.000567  -0.000050   0.002714   0.139367   0.000997   0.000457
     58      -0.000095  -0.000231   0.000429   0.041604  -0.000466   0.000035
     59      -0.375840   0.003140   0.046462  -0.005172   0.142519  -0.410705
                 36         37         38         39         40         41    
      0      -0.001914  -0.000406   0.035610  -0.048860  -0.010536  -0.011138
      1      -0.001930   0.140338   0.108924  -0.149490  -0.018197  -0.023837
      2       0.044272   0.000517  -0.111900  -0.075471   0.000351   0.000585
      3       0.000077  -0.020696  -0.026864   0.036692   0.010509   0.008781
      4       0.000589  -0.022408  -0.018063   0.024564  -0.002780   0.005839
      5       0.027062   0.000269   0.120706   0.080546  -0.000193  -0.000486
      6      -0.000438  -0.022395   0.018439  -0.025305   0.005768   0.000022
      7      -0.000909  -0.051801   0.021532  -0.029923  -0.004149   0.016287
      8      -0.075990  -0.000350  -0.129157  -0.084665  -0.000052   0.000444
      9       0.002227  -0.003029  -0.035150   0.048533   0.008552  -0.011171
     10       0.001170   0.137754  -0.111744   0.154354   0.017030  -0.025497
     11       0.044271   0.000126   0.112852   0.074166   0.000158  -0.000541
     12       0.000017  -0.019235   0.025437  -0.035059  -0.009009   0.009893
     13      -0.000596  -0.022170   0.019357  -0.026886   0.003174   0.005113
     14       0.027086  -0.000460  -0.120956  -0.080201  -0.000064   0.000487
     15      -0.002167   0.025926   0.104654  -0.145591  -0.048512   0.011484
     16       0.004337  -0.094849  -0.224636   0.311427   0.087336   0.000111
     17      -0.142906  -0.001090  -0.315881  -0.213605   0.000530   0.000921
     18      -0.005236   0.114224   0.271424  -0.372928  -0.040404  -0.038857
     19      -0.000807  -0.048178   0.028254  -0.038848  -0.004153   0.014679
     20       0.412653   0.001684   0.379690   0.244286   0.000351  -0.000944
     21       0.002090   0.024899  -0.107774   0.146529   0.050869   0.006999
     22      -0.003770  -0.091199   0.228288  -0.312692  -0.088567   0.008312
     23      -0.143025   0.002081   0.319374   0.208871   0.000441  -0.000921
     24       0.000387   0.078221  -0.044724   0.062627  -0.059463   0.064213
     25       0.000817  -0.043381   0.015884  -0.021079  -0.077734   0.087986
     26      -0.090799   0.000936  -0.049643  -0.031136  -0.000577   0.000696
     27      -0.000274  -0.064494   0.031043  -0.043432   0.043576  -0.047163
     28      -0.000720   0.028764  -0.007730   0.009758   0.079190  -0.086843
     29       0.050738  -0.000714   0.015860   0.010629   0.000499  -0.000603
     30      -0.006090   0.226734  -0.010707   0.009408   0.514681  -0.569714
     31       0.000303  -0.024088   0.001189  -0.001616   0.004262  -0.003852
     32      -0.007848   0.001050  -0.014631  -0.015183   0.000022   0.000334
     33      -0.005636   0.352797  -0.078993   0.111033  -0.393940   0.435463
     34       0.000532  -0.068207   0.016062  -0.022176  -0.046330   0.052622
     35       0.491288  -0.004564   0.142985   0.084819   0.000655  -0.000344
     36       0.002538  -0.349960   0.125726  -0.173343   0.020364  -0.014306
     37       0.002787  -0.356950   0.121204  -0.167300   0.052333  -0.047674
     38      -0.220411   0.002273  -0.023356  -0.018176  -0.000365   0.000729
     39      -0.001116   0.079831   0.045234  -0.060892   0.066033   0.059402
     40      -0.000615  -0.045007  -0.014652   0.021173   0.084385   0.080242
     41      -0.090749  -0.002111   0.047622   0.033892  -0.000976  -0.000929
     42       0.002781   0.351179   0.072893  -0.097193   0.429739   0.395056
     43       0.000099  -0.070514  -0.015474   0.021251   0.051057   0.049156
     44       0.490990   0.009899  -0.132313  -0.099341   0.001095   0.000645
     45       0.000843  -0.065959  -0.030974   0.041657  -0.047960  -0.043472
     46       0.000636   0.030713   0.007075  -0.010840  -0.085823  -0.078450
     47       0.050716   0.001419  -0.015838  -0.010654   0.000800   0.000764
     48       0.004794   0.237421   0.000956  -0.007469  -0.564371  -0.522954
     49      -0.000093  -0.024417  -0.000188   0.000202  -0.003058  -0.001716
     50      -0.007904  -0.001631   0.019930   0.007973   0.000115  -0.000076
     51      -0.000257  -0.357700  -0.123867   0.169975  -0.028692  -0.018584
     52      -0.000292  -0.367250  -0.121025   0.165829  -0.065911  -0.050535
     53      -0.220316  -0.004465   0.025901   0.014654  -0.000679  -0.000849
     54       0.000507  -0.023003  -0.016713   0.022771  -0.005663   0.000450
     55       0.001212  -0.052465  -0.021075   0.028815   0.005537   0.016137
     56      -0.076010  -0.000103   0.127970   0.086279  -0.000191  -0.000463
     57       0.003412   0.103301  -0.270248   0.374692   0.038744  -0.039891
     58       0.001026  -0.049941  -0.027810   0.038601   0.005495   0.014905
     59       0.412769   0.000371  -0.372091  -0.254645   0.000747   0.001069
                 42         43         44         45         46         47    
      0       0.031118  -0.023760  -0.003684   0.056818  -0.077375  -0.059949
      1       0.001990  -0.014205  -0.006047   0.110788   0.044591   0.003527
      2      -0.000118   0.000060   0.000072   0.000097   0.000053   0.000099
      3      -0.004007   0.000916   0.094325   0.002894   0.025265   0.049466
      4       0.010057   0.017189  -0.075781  -0.119546  -0.092458  -0.035919
      5       0.000113  -0.000020  -0.000139  -0.000085   0.000026  -0.000089
      6      -0.018754   0.007996  -0.113750   0.118399   0.094335  -0.065691
      7      -0.001257  -0.000467   0.036374   0.056767   0.023778   0.006891
      8       0.000148   0.000088   0.000056  -0.000003   0.000062  -0.000112
      9      -0.016577  -0.036065  -0.002628  -0.061717  -0.074913   0.063474
     10       0.003798  -0.012163  -0.007896  -0.107766   0.050892  -0.003313
     11      -0.000060  -0.000101  -0.000068  -0.000040  -0.000148   0.000109
     12       0.004022   0.003393   0.092533  -0.001104   0.025198  -0.050896
     13      -0.016659   0.010592  -0.073794   0.112333  -0.098356   0.037725
     14       0.000096   0.000057   0.000292  -0.000047   0.000021  -0.000135
     15       0.048385   0.050913  -0.218077  -0.300926  -0.280466  -0.105065
     16      -0.069379  -0.062620   0.416097   0.348347   0.377737   0.211948
     17      -0.001298  -0.000290   0.000455   0.000935   0.000133   0.000604
     18       0.129939   0.013964   0.480741  -0.483427  -0.467753   0.178392
     19       0.001803  -0.000832   0.054473   0.044620   0.013991   0.015687
     20      -0.001577  -0.000380  -0.000061   0.000590  -0.000096   0.000465
     21      -0.067030   0.026895  -0.218378   0.284167  -0.300338   0.113139
     22       0.093260  -0.027710   0.415935  -0.325428   0.401046  -0.226060
     23      -0.001399  -0.000267  -0.000817   0.001116  -0.000515   0.000669
     24       0.048624   0.081082  -0.020378   0.007057  -0.002077  -0.171657
     25      -0.011750  -0.017102  -0.001295   0.013152  -0.016334  -0.041300
     26       0.000209   0.000112  -0.000043  -0.000111  -0.000028  -0.000508
     27       0.022734   0.037741   0.028573   0.019221   0.016946   0.144633
     28       0.027603   0.040245   0.012203   0.008690   0.008248   0.058392
     29       0.000309   0.000171   0.000069  -0.000022   0.000075   0.000475
     30      -0.218006  -0.375867  -0.066148  -0.136288   0.007218  -0.309163
     31       0.076898   0.123292   0.034117   0.037577   0.014044   0.162867
     32      -0.001723  -0.000656  -0.000195   0.000401   0.000116   0.000111
     33      -0.336169  -0.542083   0.018644  -0.087456   0.049877   0.365734
     34       0.030344   0.050727  -0.007428   0.021531  -0.020590  -0.108217
     35      -0.001922  -0.000785   0.000196   0.000669   0.000040   0.000930
     36      -0.181116  -0.287501  -0.042244  -0.032930  -0.021256  -0.110994
     37      -0.248418  -0.400638  -0.083130  -0.062707  -0.042887  -0.294256
     38      -0.001961  -0.001373  -0.000252   0.000415  -0.000173  -0.000479
     39      -0.078576   0.052243  -0.019063  -0.008333  -0.000364   0.158960
     40       0.018623  -0.009892  -0.001830  -0.013882  -0.014746   0.038842
     41       0.000266  -0.000029   0.000083  -0.000168   0.000079  -0.000710
     42       0.544194  -0.348874   0.011376   0.097347   0.044546  -0.336687
     43      -0.049533   0.034571  -0.007380  -0.023947  -0.018427   0.101886
     44      -0.002298   0.000021  -0.000172   0.000785  -0.000154   0.001123
     45      -0.037013   0.023318   0.029498  -0.018400   0.016316  -0.135908
     46      -0.042960   0.024111   0.013208  -0.008244   0.008008  -0.054704
     47       0.000412  -0.000056  -0.000122   0.000008  -0.000100   0.000660
[...]
     52       0.394454  -0.249396  -0.089436   0.063881  -0.040445   0.280752
     53      -0.002813   0.000670   0.000347   0.000347   0.000191  -0.000704
     54       0.011780   0.013443  -0.113091  -0.111764   0.100393   0.066323
     55       0.001404   0.000213   0.035757  -0.054215   0.026391  -0.008150
     56       0.000205  -0.000000  -0.000227  -0.000174   0.000039  -0.000037
     57      -0.117151  -0.034241   0.480136   0.450634  -0.491155  -0.178462
     58      -0.000648  -0.000963   0.054205  -0.044067   0.016794  -0.017227
     59      -0.001732  -0.000320   0.000585   0.001021  -0.000290   0.000370
                 48         49         50         51         52         53    
      0      -0.042902  -0.057886  -0.000630  -0.000933  -0.000425   0.000369
      1      -0.005373   0.055295  -0.001337   0.000136  -0.000443   0.000335
      2       0.000219  -0.000159  -0.000033   0.000005   0.000014  -0.000026
      3       0.033674   0.110564  -0.001162  -0.000945  -0.001510   0.000701
      4      -0.022574  -0.113103  -0.001721  -0.000077  -0.000797   0.000546
      5      -0.000153   0.000153  -0.000002  -0.000010   0.000015  -0.000004
      6      -0.025625  -0.142041   0.000443   0.000070  -0.001130  -0.000842
      7       0.018974   0.042276  -0.001276  -0.000663  -0.002929   0.001937
      8       0.000055   0.000135   0.000001  -0.000021   0.000014  -0.000002
      9      -0.033350   0.060125   0.000170   0.000045  -0.000647  -0.000197
     10      -0.011884  -0.054176  -0.000455   0.000491  -0.001375  -0.000614
     11      -0.000178  -0.000041  -0.000004  -0.000024   0.000025  -0.000018
     12       0.019235  -0.113215   0.000540   0.017552   0.010707  -0.014051
     13      -0.008601   0.114225   0.000109   0.011078   0.005014  -0.006769
     14       0.000163  -0.000025  -0.000015   0.000012   0.000017  -0.000054
     15      -0.080145  -0.198059   0.014875   0.010562   0.012671  -0.016466
     16       0.160748   0.372004   0.006353   0.007213   0.008718  -0.010567
     17       0.000142  -0.001353   0.000102   0.000083  -0.000058   0.000095
     18       0.084123   0.407771   0.000590  -0.000513  -0.001800   0.000304
     19       0.021212   0.058475   0.003599   0.017222   0.032580  -0.029314
     20      -0.000146  -0.001746   0.000108   0.000072  -0.000070   0.000094
     21      -0.053238   0.206704  -0.010703  -0.208976  -0.122383   0.150571
     22       0.109426  -0.388137  -0.006454  -0.131122  -0.080228   0.094095
     23      -0.000191  -0.001126   0.000068  -0.000091  -0.000183   0.000173
     24       0.183441   0.072316   0.000124   0.009244  -0.008264   0.001167
     25       0.044525   0.025183  -0.001101   0.041854  -0.066253  -0.009708
     26       0.000560   0.000443  -0.000005   0.000083  -0.000171  -0.000030
     27      -0.156468  -0.063355   0.001379  -0.042662  -0.015016  -0.039103
     28      -0.069301  -0.026815   0.000950  -0.015993  -0.008916  -0.016686
     29      -0.000505  -0.000007  -0.000005  -0.000145  -0.000029  -0.000113
     30       0.308893   0.076171  -0.002128   0.085516   0.049359   0.087587
     31      -0.178474  -0.063448  -0.010703   0.455752   0.227546   0.449859
     32       0.000391  -0.001549   0.000053   0.001328   0.000567   0.001310
     33      -0.391976  -0.158645   0.002628  -0.052197   0.089719   0.015210
     34       0.115772   0.051485   0.015117  -0.500171   0.840615   0.134494
     35      -0.000450  -0.001790   0.000134  -0.000790   0.001376   0.000315
     36       0.109404   0.040761  -0.009948   0.407670   0.165200   0.387007
     37       0.297867   0.116888   0.008595  -0.291584  -0.122802  -0.280619
     38       0.001025  -0.000987   0.000085   0.000529   0.000126   0.000512
     39       0.185687  -0.088591  -0.011673  -0.001148   0.000142  -0.000030
     40       0.044543  -0.029394  -0.080179  -0.000696   0.001379  -0.001642
     41      -0.000825   0.000638   0.000237  -0.000000  -0.000002   0.000002
     42      -0.396778   0.188278   0.106684   0.000722  -0.000652   0.001130
     43       0.118410  -0.061734   0.989758   0.012070  -0.012370   0.016539
     44       0.000612  -0.002043  -0.002032   0.000071  -0.000058   0.000042
     45      -0.159896   0.079099   0.005638   0.001847   0.000704  -0.001318
     46      -0.070226   0.034106  -0.000006   0.001031   0.000906  -0.000309
     47       0.000804  -0.000191  -0.000050  -0.000014   0.000004   0.000014
     48       0.317981  -0.112541   0.005447  -0.004781  -0.001444   0.000887
     49      -0.179358   0.082249  -0.004251  -0.023962  -0.003823   0.006303
     50      -0.000832  -0.001419   0.000079   0.000182  -0.000044   0.000075
     51       0.112427  -0.056843  -0.031478  -0.022565  -0.005586   0.008307
     52       0.305617  -0.153801   0.018396   0.015977   0.005366  -0.006467
     53      -0.001465  -0.000700   0.000131   0.000139  -0.000060   0.000078
     54      -0.007408   0.145698  -0.001191  -0.002054  -0.000950   0.001487
     55       0.013995  -0.043696  -0.000042   0.038297   0.031795  -0.058089
     56      -0.000073   0.000302  -0.000023   0.000003   0.000008  -0.000037
     57       0.032331  -0.425929  -0.000164   0.010757   0.010199  -0.017107
     58       0.014287  -0.060464  -0.006894  -0.460533  -0.399684   0.709995
     59       0.000117  -0.002161   0.000073  -0.000194  -0.000336   0.000508
                 54         55         56         57         58         59    
      0       0.000496  -0.000157  -0.001146  -0.000246  -0.000161   0.000449
      1       0.000597   0.000068  -0.000359   0.001657   0.000007   0.000340
      2      -0.000020  -0.000012   0.000001   0.000026   0.000002  -0.000000
      3      -0.007544   0.027931  -0.002747  -0.060681  -0.000388  -0.000788
      4      -0.005152   0.015587  -0.001485  -0.040193  -0.000042  -0.000295
      5      -0.000023  -0.000026   0.000001  -0.000032  -0.000006   0.000004
      6       0.000865  -0.002626  -0.000159   0.001238  -0.000515   0.000179
      7      -0.007638   0.073305  -0.003251   0.031009   0.000020   0.000216
      8      -0.000013  -0.000029  -0.000004   0.000014  -0.000008   0.000007
      9       0.000613  -0.000805  -0.000130  -0.001217  -0.000446   0.000223
     10      -0.000124  -0.000143   0.001650  -0.000438  -0.000435  -0.000057
     11      -0.000003  -0.000033  -0.000028  -0.000004  -0.000000   0.000002
     12      -0.000104  -0.001683  -0.063196   0.000341   0.000802   0.000326
     13      -0.000531  -0.001031  -0.041592   0.000467   0.000201  -0.000045
     14      -0.000007  -0.000001  -0.000046  -0.000002   0.000005  -0.000006
     15       0.098021  -0.323605   0.027173   0.766533  -0.000503   0.015735
     16       0.062920  -0.204374   0.018005   0.492092   0.000184   0.007906
     17       0.000077  -0.000043   0.000078   0.000172  -0.000011   0.000013
     18      -0.002087   0.022851  -0.001694   0.007606  -0.000527   0.000024
     19       0.094301  -0.906886   0.039956  -0.397682  -0.003107  -0.001415
     20       0.000021   0.000518   0.000035   0.000201  -0.000012   0.000008
     21       0.008963   0.027086   0.787168  -0.010691  -0.015237   0.001399
     22       0.004843   0.017943   0.506288  -0.006013  -0.007866   0.000461
     23       0.000091   0.000090   0.000688  -0.000074  -0.000001  -0.000014
     24       0.000304  -0.000476  -0.000284  -0.000893  -0.001842   0.000106
     25      -0.001172  -0.000606   0.002310  -0.000257  -0.004141  -0.000083
     26      -0.000004  -0.000003   0.000004  -0.000001  -0.000014   0.000005
     27       0.001678   0.000201  -0.007127  -0.000543  -0.031713   0.000131
     28      -0.000079   0.000457  -0.000962  -0.000129   0.096368  -0.000607
     29       0.000009   0.000008  -0.000020  -0.000002   0.000120  -0.000000
     30      -0.001677   0.001266   0.008276  -0.000540  -0.124750   0.000831
     31      -0.013555   0.005874   0.058629   0.001066  -0.704175   0.002119
     32       0.000059   0.000084   0.000218  -0.000060  -0.001940  -0.000004
     33       0.001437   0.002274  -0.003087  -0.000321   0.000889  -0.000160
     34       0.009774   0.016807  -0.027253   0.001280   0.027558  -0.001647
     35       0.000097   0.000081   0.000021  -0.000053   0.000031   0.000003
     36      -0.010966   0.001755   0.068673  -0.001231   0.551592   0.000181
     37       0.007673  -0.000295  -0.050262   0.000435  -0.415850  -0.000575
     38       0.000081   0.000065   0.000139  -0.000059   0.000606  -0.000002
     39      -0.003845  -0.000320  -0.000908  -0.000600  -0.000047   0.001951
     40       0.000881   0.000031  -0.001104   0.001027   0.000232   0.003460
     41      -0.000014   0.000008   0.000003  -0.000001   0.000004  -0.000015
     42      -0.004581   0.000889   0.000634  -0.001684   0.000197  -0.000206
     43      -0.035090   0.006211   0.010504  -0.010605   0.000160  -0.020081
     44       0.000142   0.000056   0.000039  -0.000038   0.000010   0.000023
     45       0.059614   0.008644  -0.000713  -0.005304  -0.000057   0.028673
     46       0.019596   0.002991  -0.000061   0.000221   0.000278  -0.096739
     47      -0.000264  -0.000034   0.000001   0.000020   0.000001   0.000157
     48      -0.123171  -0.015507  -0.000519   0.003757  -0.000138   0.129567
     49      -0.638627  -0.084779   0.000791   0.035557   0.001660   0.735851
     50       0.002380   0.000360   0.000065  -0.000175  -0.000011  -0.002650
     51      -0.600442  -0.086826   0.001221   0.051723  -0.001153  -0.525533
     52       0.432015   0.063744  -0.001364  -0.038038   0.001509   0.393209
     53       0.001143   0.000214   0.000062  -0.000148   0.000004   0.000909
     54       0.001161   0.000214   0.001422  -0.000425  -0.000075   0.000441
     55      -0.003177   0.005474   0.025223  -0.000732  -0.000259  -0.000026
     56      -0.000013   0.000003  -0.000010   0.000004   0.000007  -0.000007
     57       0.000126   0.001342   0.005688  -0.000953   0.000021   0.000543
     58       0.037600  -0.059750  -0.321376   0.009698   0.000943   0.002295
     59       0.000098   0.000014  -0.000188  -0.000045   0.000012  -0.000016


-----------
IR SPECTRUM
-----------

 Mode    freq (cm**-1)   T**2         TX         TY         TZ
-------------------------------------------------------------------
   6:       341.56    0.460230  ( -0.639387   0.226744  -0.001291)
   7:       356.51    0.007310  ( -0.002700  -0.000911  -0.085450)
   8:       356.98    0.001063  ( -0.015579  -0.000813   0.028631)
   9:       496.21    0.000172  (  0.003662   0.010946   0.006246)
  10:       549.24    2.259477  ( -1.061629   1.064151  -0.001867)
  11:       638.82    0.000428  ( -0.016522  -0.003786  -0.011870)
  12:       652.63    0.000041  (  0.004360   0.004637   0.000058)
  13:       680.32    0.002597  (  0.034144  -0.028690  -0.024661)
  14:       787.90   10.534810  ( -3.009809   1.214849  -0.000896)
  15:       853.42    1.286478  ( -0.002236   0.000766   1.134228)
  16:       858.58    0.001848  (  0.038735   0.000315  -0.018634)
  17:       876.03    0.000017  (  0.003922   0.001204  -0.000137)
  18:       936.15    0.017327  ( -0.000061  -0.001015  -0.131629)
  19:      1022.71    0.363115  ( -0.540062   0.267296  -0.001106)
  20:      1081.98   21.260944  ( -0.000126  -0.002075   4.610959)
  21:      1163.69    0.000601  (  0.021637  -0.011538   0.000440)
  22:      1183.59    1.631855  (  0.547788  -1.154025  -0.003239)
  23:      1193.98    1.123789  (  0.001984   0.004800   1.060077)
  24:      1202.36    0.021432  ( -0.035883  -0.021593  -0.140278)
  25:      1219.78    0.000042  (  0.001344   0.006330   0.000625)
  26:      1235.41    1.527811  ( -1.235390  -0.039981  -0.004801)
  27:      1273.80    0.017058  ( -0.012718  -0.035222  -0.125123)
  28:      1277.74    0.001615  ( -0.035674  -0.018512   0.000243)
  29:      1285.30    3.735933  (  1.793805   0.719853   0.002991)
  30:      1300.20   50.357054  (  0.012166  -0.000762  -7.096260)
  31:      1312.60    0.040301  ( -0.025334  -0.025725   0.197477)
  32:      1313.53  211.929958  (  0.006460   0.002625  14.557813)
  33:      1340.63    0.001250  ( -0.003473   0.021759   0.027657)
  34:      1347.89    0.006112  (  0.049959  -0.060119   0.001256)
  35:      1350.66    1.002494  ( -0.011760   0.011257   1.001114)
  36:      1357.93   20.995023  ( -0.019177   0.017189   4.581960)
  37:      1375.26   45.622593  (  4.056033  -5.400996   0.020551)
  38:      1414.37    0.015962  ( -0.048758   0.038982   0.109842)
  39:      1414.57    0.028693  (  0.051481  -0.039468  -0.156477)
  40:      1456.98    0.015750  ( -0.125230  -0.001061   0.008170)
  41:      1460.05    9.023706  ( -2.857304   0.927101   0.001586)
  42:      1596.00    1.328413  (  1.120358   0.255404  -0.089332)
  43:      1599.46   24.889059  ( -4.871583  -1.075375  -0.017597)
  44:      1653.42   11.457559  (  0.703775   3.310930   0.001344)
  45:      1685.31    0.027859  ( -0.155487   0.053679   0.028305)
  46:      1702.29   31.196416  ( -5.322889   1.692118  -0.002942)
  47:      1765.26    0.013406  ( -0.069968  -0.091891   0.008147)
  48:      1775.22   17.258406  (  3.124580   2.737773  -0.002786)
  49:      1784.12    0.064791  ( -0.202017  -0.146352  -0.050613)
  50:      3506.95    3.611125  (  1.577371   1.059730   0.000164)
  51:      3525.01   12.007749  (  2.679115  -2.197717   0.011474)
  52:      3527.68    9.518137  (  3.064458  -0.356692   0.002498)
  53:      3529.01   37.152842  (  5.647566   2.292949   0.014992)
  54:      3539.72   43.936661  ( -6.592603   0.688323   0.021543)
  55:      3548.45   15.507558  ( -2.227974  -3.247099   0.006186)
  56:      3557.16    6.539584  (  2.437151   0.774493   0.006379)
  57:      3573.91    4.219725  (  2.021395   0.365615  -0.003359)
  58:      3656.85    3.999961  (  0.884548  -1.793747  -0.002455)
  59:      3670.20    3.537519  ( -0.555046   1.797062  -0.003474)

The first frequency considered to be a vibration is 6
The total number of vibrations considered is 54


--------------------------
THERMOCHEMISTRY AT 298.15K
--------------------------

Temperature         ... 298.15 K
Pressure            ... 1.00 atm
Total Mass          ... 130.19 AMU

Throughout the following assumptions are being made:
  (1) The electronic state is orbitally nondegenerate
  (2) There are no thermally accessible electronically excited states
  (3) Hindered rotations indicated by low frequency modes) are not
      treated as such but are treated as vibrations and this may
      case some error
  (4) All equations used are the standard statistical mechanics
      equations for an ideal gas
  (5) All vibrations are strinctly harmonic


------------
INNER ENERGY
------------

The inner energy is: U= E(el) + E(ZPE) + E(vib) + E(rot) + E(trans)
    E(el)   - is the total energy from the electronic structure calculation
              = E(kin-el) + E(nuc-el) + E(el-el) + E(nuc-nuc)
    E(ZPE)  - the the zero temperature vibrational energy from the frequency calculation
    E(vib)  - the the finite temperature correction to E(ZPE) due to population
              of excietd vibrational states
    E(rot)  - is the rotational thermal energy
    E(trans)- is the translational thermal energy

Summary of contributions to the inner energy U:
Electronic energy                ...   -384.66663577 Eh
Zero point energy                ...      0.19857778 Eh     124.61 kcal/mol
Thermal vibrational correction   ...      0.00252436 Eh       1.58 kcal/mol
Thermal rotational correction    ...      0.00141628 Eh       0.89 kcal/mol
Thermal translational correction ...      0.00141628 Eh       0.89 kcal/mol
-----------------------------------------------------------------------
Total thermal energy                   -384.46270107 Eh


Summary of corrections to the electronic energy:
(perhaps to be used in another calculation)
Total thermal correction                  0.00535691 Eh       3.36 kcal/mol
Non-thermal (ZPE) correction              0.19857778 Eh     124.61 kcal/mol
-----------------------------------------------------------------------
Total correction                          0.20393470 Eh     127.97 kcal/mol


--------
ENTHALPY
--------

The enthalpy is H = U + kB*T
                kB is Boltmann's constant
Total free energy                 ...   -384.46270107 Eh 
Thermal Enthalpy correction       ...      0.00094421 Eh       0.59 kcal/mol
-----------------------------------------------------------------------
Total Enthalpy                    ...   -384.46175686 Eh


-------
ENTROPY
-------

The entropy contributions are T*S = T*(S(el)+S(vib)+S(rot)+S(trans)
     S(el)   - electronic entropy
     S(vib)  - vibrational entropy
     S(rot)  - rotational entropy
     S(trans)- translational entropy
The entropies will be listed as mutliplied by the temperature to get
units of energy

Electronic entropy                ...      0.00000000 Eh      0.00 kcal/mol
Vibrational entropy               ...      0.00350870 Eh      2.20 kcal/mol
Rotational entropy                ...      0.01296168 Eh      8.13 kcal/mol
Translational entropy             ...      0.01924496 Eh     12.08 kcal/mol
-----------------------------------------------------------------------
Final entropy term                ...      0.03571534 Eh     22.41 kcal/mol


CAUTION: The rotational entropy is not quite correctly treated here
         because it includes a symmetry number that is not yet croorectly
         implemented in ORCA!
For a nonlinear molecule the correct rotational entropy is:
    S(rot) = R*(ln(qrot/sn)+1.5)
    R    = 8.31441 J/mol/K = 1.987191683e-3 kcal/mol/K
    qrot = 613251.7750596
    sn is the rotational symmetry number. We have assumed 3 here
       if it is different for your molecule then you should correct
       the printed rotational entropy by manually evaluating the equation
       as given above

For convenience we print out the resulting values for sn=1 - 12:
 sn= 1  qrot/sn=  613251.7751 T*S(rot)=     8.78 kcal/mol T*S(tot)=    23.06 kcal/mol
 sn= 2  qrot/sn=  306625.8875 T*S(rot)=     8.37 kcal/mol T*S(tot)=    22.65 kcal/mol
 sn= 3  qrot/sn=  204417.2584 T*S(rot)=     8.13 kcal/mol T*S(tot)=    22.41 kcal/mol
 sn= 4  qrot/sn=  153312.9438 T*S(rot)=     7.96 kcal/mol T*S(tot)=    22.24 kcal/mol
 sn= 5  qrot/sn=  122650.3550 T*S(rot)=     7.83 kcal/mol T*S(tot)=    22.11 kcal/mol
 sn= 6  qrot/sn=  102208.6292 T*S(rot)=     7.72 kcal/mol T*S(tot)=    22.00 kcal/mol
 sn= 7  qrot/sn=   87607.3964 T*S(rot)=     7.63 kcal/mol T*S(tot)=    21.91 kcal/mol
 sn= 8  qrot/sn=   76656.4719 T*S(rot)=     7.55 kcal/mol T*S(tot)=    21.83 kcal/mol
 sn= 9  qrot/sn=   68139.0861 T*S(rot)=     7.48 kcal/mol T*S(tot)=    21.76 kcal/mol
 sn=10  qrot/sn=   61325.1775 T*S(rot)=     7.42 kcal/mol T*S(tot)=    21.70 kcal/mol
 sn=11  qrot/sn=   55750.1614 T*S(rot)=     7.36 kcal/mol T*S(tot)=    21.64 kcal/mol
 sn=12  qrot/sn=   51104.3146 T*S(rot)=     7.31 kcal/mol T*S(tot)=    21.59 kcal/mol


-------------------
GIBBS FREE ENTHALPY
-------------------

The Gibbs free enthalpy is G = H - T*S

Total enthalpy                    ...   -384.46175686 Eh 
Total entropy correction          ...     -0.03571534 Eh    -22.41 kcal/mol
-----------------------------------------------------------------------
Final Gibbs free enthalpy         ...   -384.49747220 Eh

For completeness - the Gibbs free enthalpy minus the electronic energy
G-E(el)                           ...      0.16916357 Eh    106.15 kcal/mol


Timings for individual modules:

Sum of individual times         ...     3822.059 sec (=  63.701 min)
GTO integral calculation        ...       23.641 sec (=   0.394 min)   0.6 %
SCF iterations                  ...     1440.805 sec (=  24.013 min)  37.7 %
SCF Gradient evaluation         ...     2357.613 sec (=  39.294 min)  61.7 %
                             ****ORCA TERMINATED NORMALLY****
TOTAL RUN TIME: 0 days 1 hours 4 minutes 4 seconds 6 msec
