
                                 *****************
                                 * O   R   C   A *
                                 *****************

           --- An Ab Initio, DFT and Semiempirical electronic structure package ---

                  ######################################################
                  #                        -***-                       #
                  #  Department of molecular theory and spectroscopy   #
                  #              Directorship: Frank Neese             #
                  #   Max Planck Institute for Bioinorganic Chemistry  #
                  #                  D-45470 Muelheim/Ruhr             #
                  #                       Germany                      #
                  #                                                    #
                  #                  All rights reserved               #
                  #                        -***-                       #
                  ######################################################


                         Program Version 2.9.0 -  RELEASE  -


 With contributions from (in alphabetic order):
   Ute Becker             : Parallelization
   Dmitry Ganyushin       : Spin-Orbit,Spin-Spin,Magnetic field MRCI
   Andreas Hansen         : Spin unrestricted coupled pair/coupled cluster methods
   Dimitrios Liakos       : Parallel MDCI
   Robert Izsak           : Overlap fitted RIJCOSX
   Christian Kollmar      : KDIIS, orbital optimized coupled pair methods, Brueckner methods
   Simone Kossmann        : Meta GGA functionals, improved MP2 methods
   Taras Petrenko         : TD-DFT gradient, Resonance Raman, ABS, fluorescence, XAS, NRVS
   Christoph Reimann      : Effective Core Potentials
   Michael Roemelt        : Restricted open shell CI
   Christoph Riplinger    : Improved optimizer, TS searches, QM/MM
   Barbara Sandhoefer     : DKH, picture change effects
   Igor Schapiro          : Molecular dynamics
   Kantharuban Sivalingam : CASSCF and multireference perturbation theory
   Boris Wezisla          : Elementary symmetry handling
   Frank Wennmohs         : Technical directorship


 We gratefully acknowledge several collegues who have allowed us to
 interface, adapt or use parts of their codes:
   Stefan Grimme                                : VdW corrections, initial TS optimization
                                                  and many helpful discussions
   Ed Valeev                                    : LibInt (2-el integral package), F12 methods
   Andreas Klamt, Michael Diedenhofen           : otool_cosmo (COSMO solvation model)
   Frank Weinhold                               : gennbo (NPA and NBO analysis)


 Your calculation uses the libint2 library for the computation of 2-el integrals
 For citations please refer to: http://libint.valeyev.net

================================================================================
                                        WARNINGS
                       Please study these warnings very carefully!
================================================================================
Now building the actual basis set

WARNING: Gradients are needed
  ===> : forcing at least TightSCF

WARNING: Geometry Optimization
  ===> : Switching off AutoStart
         For restart on a previous wavefunction, please use MOREAD


INFO   : the flag for use of LIBINT has been found!

================================================================================
                                       INPUT FILE
================================================================================
NAME = dvb_gopt.inp
|  1> # Geometry optimization restricted B3LYP/sto-3g calc
|  2> ! RKS STO-3G B3LYP UseSym Opt
|  3> %output
|  4>  PrintLevel Normal
|  5>  Print[ P_MOs ] 1
|  6>  Print[ P_Overlap ] 1
|  7> end 
|  8> * xyz 0 1
|  9>  C                  0.27867948   -1.36683162    0.00000000
| 10>  C                  1.32303041   -0.44173575    0.00000000
| 11>  C                  1.04434506    0.92484978    0.00000000
| 12>  C                 -0.27867948    1.36683162    0.00000000
| 13>  C                 -1.32303041    0.44173575    0.00000000
| 14>  C                 -1.04434506   -0.92484978    0.00000000
| 15>  H                  2.36595443   -0.79037726    0.00000000
| 16>  H                  1.86746094    1.65407997    0.00000000
| 17>  H                 -2.36595443    0.79037726    0.00000000
| 18>  H                 -1.86746094   -1.65407997    0.00000000
| 19>  C                 -0.58659169    2.87589931    0.00000000
| 20>  C                  0.36350188    3.80076420    0.00000000
| 21>  H                 -1.65647768    3.12394312    0.00000000
| 22>  H                  0.14429560    4.87693235    0.00000000
| 23>  H                  1.43338788    3.55272039    0.00000000
| 24>  C                  0.58659169   -2.87589931    0.00000000
| 25>  C                 -0.36350188   -3.80076420    0.00000000
| 26>  H                  1.65647768   -3.12394312    0.00000000
| 27>  H                 -0.14429560   -4.87693235    0.00000000
| 28>  H                 -1.43338788   -3.55272039    0.00000000
| 29> *
| 30> 
| 31> 
| 32>                          ****END OF INPUT****
================================================================================

------------------------------------------------------------------------------
                            SYMMETRY HANDLING SETUP
------------------------------------------------------------------------------

------------------
SYMMETRY DETECTION
------------------
Preparing Data                    ... done
Detection Threshold:    SymThresh ... 1.0000e-04

Point Group will now be determined:
Moving molecule to center of mass ... done

POINT GROUP                       ... C2h

The coordinates will now be cleaned:
Moving to standard coord frame    ... done
(Changed main axis to z and atom 0 to xz plane)
Structure cleanup requested       ... yes
Selected point group              ... C2h
Cleaning Tolerance      SymThresh ... 1.0000e-04

Some missing point group data is constructed:
Constructing symmetry operations  ... done
Creating atom transfer table      ... done
Creating asymmetric unit          ... done

Cleaning coordinates              ... done

-----------------------------------------------
SYMMETRY-PERFECTED CARTESIAN COORDINATES (A.U.)
-----------------------------------------------
   0 C     2.63607715   0.00000000   0.00000000 
   1 C     1.31740777   2.28299936   0.00000000 
   2 C    -1.31821593   2.28289559   0.00000000 
   3 C    -2.63607715  -0.00000000   0.00000000 
   4 C    -1.31740777  -2.28299936   0.00000000 
   5 C     1.31821593  -2.28289559   0.00000000 
   6 H     2.35669238   4.08249013   0.00000000 
   7 H    -2.35773573   4.08230509   0.00000000 
   8 H    -2.35669238  -4.08249013   0.00000000 
   9 H     2.35773573  -4.08230509   0.00000000 
  10 C    -5.54655919  -0.00043072   0.00000000 
  11 C    -6.90038530   2.10795152   0.00000000 
  12 H    -6.40975269  -1.88782318   0.00000000 
  13 H    -8.97580815   2.10834154   0.00000000 
  14 H    -6.03719180   3.99534399   0.00000000 
  15 C     5.54655919   0.00043072   0.00000000 
  16 C     6.90038530  -2.10795152   0.00000000 
  17 H     6.40975269   1.88782318   0.00000000 
  18 H     8.97580815  -2.10834154   0.00000000 
  19 H     6.03719180  -3.99534399   0.00000000 

------------------
SYMMETRY REDUCTION
------------------
ORCA supports only abelian point groups.
It is now checked, if the determined point group is supported:
Point Group ( C2h   ) is          ... supported

(Re)building abelian point group:
Creating Character Table          ... done
Making direct product table       ... done

----------------------
ASYMMETRIC UNIT IN C2h
----------------------
  #  AT     MASS              COORDS (A.U.)             BAS
   0 C   12.0110   2.63607715   0.00000000   0.00000000   0
   1 C   12.0110   1.31740777   2.28299936   0.00000000   0
   2 C   12.0110  -1.31821593   2.28289559   0.00000000   0
   6 H    1.0080   2.35669238   4.08249013   0.00000000   0
   7 H    1.0080  -2.35773573   4.08230509   0.00000000   0
  10 C   12.0110  -5.54655919  -0.00043072   0.00000000   0
  11 C   12.0110  -6.90038530   2.10795152   0.00000000   0
  12 H    1.0080  -6.40975269  -1.88782318   0.00000000   0
  13 H    1.0080  -8.97580815   2.10834154   0.00000000   0
  14 H    1.0080  -6.03719180   3.99534399   0.00000000   0

----------------------
SYMMETRY ADOPTED BASIS
----------------------
The coefficients for the symmetry adopted linear combinations (SALCS)
of basis functions will now be computed:
Number of basis functions         ...    60
Preparing memory                  ... done
Constructing Gamma(red)           ... done
Reducing Gamma(red)               ... done
Constructing SALCs                ... done
Checking SALC integrity           ... nothing suspicious
Normalizing SALCs                 ... done

Storing the symmetry object:
Symmetry file                     ... dvb_gopt.sym.tmp
Writing symmetry information      ... done

                       *****************************
                       * Geometry Optimization Run *
                       *****************************

Geometry optimization settings:
Update method            Update   .... BFGS
Choice of coordinates    CoordSys .... Redundant Internals
Initial Hessian          InHess   .... Almoef's Model

Convergence Tolerances:
Energy Change            TolE     ....  5.0000e-06 Eh
Max. Gradient            TolMAXG  ....  3.0000e-04 Eh/bohr
RMS Gradient             TolRMSG  ....  1.0000e-04 Eh/bohr
Max. Displacement        TolMAXD  ....  4.0000e-03 bohr
RMS Displacement         TolRMSD  ....  2.0000e-03 bohr

------------------------------------------------------------------------------
                        ORCA OPTIMIZATION COORDINATE SETUP
------------------------------------------------------------------------------

The optimization will be done in new redundant internal coordinates
Making redundant internal coordinates   ...  (new redundants) done
Evaluating the initial hessian          ...  (Almloef) done
Evaluating the coordinates              ...  done
Calculating the B-matrix                .... done
Calculating the G-matrix                .... done
Diagonalizing the G-matrix              .... done
Small eigenvalue found = 1.576e-02
The first mode is                       ....   36
The number of degrees of freedom        ....   54

    -----------------------------------------------------------------
                    Redundant Internal Coordinates


    -----------------------------------------------------------------
         Definition                    Initial Value    Approx d2E/dq
    -----------------------------------------------------------------
      1. B(C   1,C   0)                  1.3952         0.613065   
      2. B(C   2,C   1)                  1.3947         0.614074   
      3. B(C   3,C   2)                  1.3949         0.613654   
      4. B(C   4,C   3)                  1.3952         0.613065   
      5. B(C   5,C   0)                  1.3949         0.613654   
      6. B(C   5,C   4)                  1.3947         0.614074   
      7. B(H   6,C   1)                  1.0997         0.347551   
      8. B(H   7,C   2)                  1.0997         0.347519   
      9. B(H   8,C   4)                  1.0997         0.347551   
     10. B(H   9,C   5)                  1.0997         0.347519   
     11. B(C  10,C   3)                  1.5402         0.359887   
     12. B(C  11,C  10)                  1.3259         0.790644   
     13. B(H  12,C  10)                  1.0983         0.349333   
     14. B(H  13,C  11)                  1.0983         0.349329   
     15. B(H  14,C  11)                  1.0983         0.349333   
     16. B(C  15,C   0)                  1.5402         0.359887   
     17. B(C  16,C  15)                  1.3259         0.790644   
     18. B(H  17,C  15)                  1.0983         0.349333   
     19. B(H  18,C  16)                  1.0983         0.349329   
     20. B(H  19,C  16)                  1.0983         0.349333   
     21. A(C   5,C   0,C  15)          120.0053         0.393386   
     22. A(C   1,C   0,C  15)          120.0024         0.393320   
     23. A(C   1,C   0,C   5)          119.9923         0.432388   
     24. A(C   2,C   1,H   6)          120.0106         0.350230   
     25. A(C   0,C   1,C   2)          120.0086         0.432441   
     26. A(C   0,C   1,H   6)          119.9808         0.350133   
     27. A(C   3,C   2,H   7)          119.9881         0.350184   
     28. A(C   1,C   2,H   7)          120.0128         0.350225   
     29. A(C   1,C   2,C   3)          119.9991         0.432516   
     30. A(C   2,C   3,C   4)          119.9923         0.432388   
     31. A(C   4,C   3,C  10)          120.0024         0.393320   
     32. A(C   2,C   3,C  10)          120.0053         0.393386   
     33. A(C   5,C   4,H   8)          120.0106         0.350230   
     34. A(C   3,C   4,H   8)          119.9808         0.350133   
     35. A(C   3,C   4,C   5)          120.0086         0.432441   
     36. A(C   4,C   5,H   9)          120.0128         0.350225   
     37. A(C   0,C   5,H   9)          119.9881         0.350184   
     38. A(C   0,C   5,C   4)          119.9991         0.432516   
     39. A(C  11,C  10,H  12)          122.7180         0.365929   
     40. A(C   3,C  10,H  12)          114.5853         0.320741   
     41. A(C   3,C  10,C  11)          122.6967         0.411355   
     42. A(H  13,C  11,H  14)          114.5661         0.288084   
     43. A(C  10,C  11,H  14)          122.7180         0.365929   
     44. A(C  10,C  11,H  13)          122.7159         0.365929   
     45. A(C  16,C  15,H  17)          122.7180         0.365929   
     46. A(C   0,C  15,H  17)          114.5853         0.320741   
     47. A(C   0,C  15,C  16)          122.6967         0.411355   
     48. A(H  18,C  16,H  19)          114.5661         0.288084   
     49. A(C  15,C  16,H  19)          122.7180         0.365929   
     50. A(C  15,C  16,H  18)          122.7159         0.365929   
     51. D(H   6,C   1,C   0,C   5)    180.0000         0.025973   
     52. D(C   2,C   1,C   0,C  15)    180.0000         0.025973   
     53. D(H   6,C   1,C   0,C  15)      0.0000         0.025973   
     54. D(C   2,C   1,C   0,C   5)      0.0000         0.025973   
     55. D(H   7,C   2,C   1,H   6)      0.0000         0.026063   
     56. D(C   3,C   2,C   1,H   6)    180.0000         0.026063   
     57. D(C   3,C   2,C   1,C   0)      0.0000         0.026063   
     58. D(H   7,C   2,C   1,C   0)    180.0000         0.026063   
     59. D(C  10,C   3,C   2,H   7)      0.0000         0.026026   
     60. D(C  10,C   3,C   2,C   1)    180.0000         0.026026   
     61. D(C   4,C   3,C   2,H   7)    180.0000         0.026026   
     62. D(C   4,C   3,C   2,C   1)      0.0000         0.026026   
     63. D(H   8,C   4,C   3,C   2)    180.0000         0.025973   
     64. D(C   5,C   4,C   3,C  10)    180.0000         0.025973   
     65. D(C   5,C   4,C   3,C   2)      0.0000         0.025973   
     66. D(H   8,C   4,C   3,C  10)      0.0000         0.025973   
     67. D(H   9,C   5,C   4,H   8)      0.0000         0.026063   
     68. D(C   0,C   5,C   4,H   8)    180.0000         0.026063   
     69. D(C   0,C   5,C   4,C   3)      0.0000         0.026063   
     70. D(H   9,C   5,C   0,C  15)      0.0000         0.026026   
     71. D(H   9,C   5,C   0,C   1)    180.0000         0.026026   
     72. D(H   9,C   5,C   4,C   3)    180.0000         0.026063   
     73. D(C   4,C   5,C   0,C  15)    180.0000         0.026026   
     74. D(C   4,C   5,C   0,C   1)      0.0000         0.026026   
     75. D(H  12,C  10,C   3,C   4)      0.0000         0.009047   
     76. D(H  12,C  10,C   3,C   2)    180.0000         0.009047   
     77. D(C  11,C  10,C   3,C   4)    180.0000         0.009047   
     78. D(C  11,C  10,C   3,C   2)      0.0000         0.009047   
     79. D(H  14,C  11,C  10,C   3)      0.0000         0.045059   
     80. D(H  13,C  11,C  10,H  12)      0.0000         0.045059   
     81. D(H  13,C  11,C  10,C   3)    180.0000         0.045059   
     82. D(H  14,C  11,C  10,H  12)    180.0000         0.045059   
     83. D(H  17,C  15,C   0,C   5)    180.0000         0.009047   
     84. D(H  17,C  15,C   0,C   1)      0.0000         0.009047   
     85. D(C  16,C  15,C   0,C   5)      0.0000         0.009047   
     86. D(C  16,C  15,C   0,C   1)    180.0000         0.009047   
     87. D(H  19,C  16,C  15,H  17)    180.0000         0.045059   
     88. D(H  19,C  16,C  15,C   0)      0.0000         0.045059   
     89. D(H  18,C  16,C  15,H  17)      0.0000         0.045059   
     90. D(H  18,C  16,C  15,C   0)    180.0000         0.045059   
    -----------------------------------------------------------------

Number of atoms                         .... 20
Number of degrees of freedom            .... 90

         *************************************************************
         *                GEOMETRY OPTIMIZATION CYCLE   1            *
         *************************************************************
---------------------------------
CARTESIAN COORDINATES (ANGSTROEM)
---------------------------------
  C      1.394952    0.000000    0.000000
  C      0.697142    1.208111    0.000000
  C     -0.697570    1.208056    0.000000
  C     -1.394952   -0.000000    0.000000
  C     -0.697142   -1.208111    0.000000
  C      0.697570   -1.208056    0.000000
  H      1.247108    2.160361    0.000000
  H     -1.247660    2.160263    0.000000
  H     -1.247108   -2.160361    0.000000
  H      1.247660   -2.160263    0.000000
  C     -2.935113   -0.000228    0.000000
  C     -3.651527    1.115480    0.000000
  H     -3.391895   -0.998993    0.000000
  H     -4.749793    1.115686    0.000000
  H     -3.194744    2.114245    0.000000
  C      2.935113    0.000228    0.000000
  C      3.651527   -1.115480    0.000000
  H      3.391895    0.998993    0.000000
  H      4.749793   -1.115686    0.000000
  H      3.194744   -2.114245    0.000000

----------------------------
CARTESIAN COORDINATES (A.U.)
----------------------------
  NO LB      ZA    FRAG    MASS        X           Y           Z
   0 C     6.0000    0    12.011    2.636077    0.000000    0.000000
   1 C     6.0000    0    12.011    1.317408    2.282999    0.000000
   2 C     6.0000    0    12.011   -1.318216    2.282896    0.000000
   3 C     6.0000    0    12.011   -2.636077   -0.000000    0.000000
   4 C     6.0000    0    12.011   -1.317408   -2.282999    0.000000
   5 C     6.0000    0    12.011    1.318216   -2.282896    0.000000
   6 H     1.0000    0     1.008    2.356692    4.082490    0.000000
   7 H     1.0000    0     1.008   -2.357736    4.082305    0.000000
   8 H     1.0000    0     1.008   -2.356692   -4.082490    0.000000
   9 H     1.0000    0     1.008    2.357736   -4.082305    0.000000
  10 C     6.0000    0    12.011   -5.546559   -0.000431    0.000000
  11 C     6.0000    0    12.011   -6.900385    2.107952    0.000000
  12 H     1.0000    0     1.008   -6.409753   -1.887823    0.000000
  13 H     1.0000    0     1.008   -8.975808    2.108342    0.000000
  14 H     1.0000    0     1.008   -6.037192    3.995344    0.000000
  15 C     6.0000    0    12.011    5.546559    0.000431    0.000000
  16 C     6.0000    0    12.011    6.900385   -2.107952    0.000000
  17 H     1.0000    0     1.008    6.409753    1.887823    0.000000
  18 H     1.0000    0     1.008    8.975808   -2.108342    0.000000
  19 H     1.0000    0     1.008    6.037192   -3.995344    0.000000

--------------------------------
INTERNAL COORDINATES (ANGSTROEM)
--------------------------------
 C      0   0   0   0.000000     0.000     0.000
 C      1   0   0   1.395160     0.000     0.000
 C      2   1   0   1.394712   120.009     0.000
 C      3   2   1   1.394899   119.999     0.000
 C      4   3   2   1.395160   119.992     0.000
 C      5   4   3   1.394712   120.009     0.000
 H      2   1   3   1.099655   119.981   180.000
 H      3   2   1   1.099680   120.013   180.000
 H      5   4   3   1.099655   119.981   180.000
 H      6   5   4   1.099680   120.013   180.000
 C      4   3   2   1.540161   120.005   180.000
 C     11   4   3   1.325916   122.697     0.000
 H     11   4   3   1.098263   114.585   180.000
 H     12  11   4   1.098266   122.716   180.000
 H     12  11   4   1.098263   122.718     0.000
 C      1   2   3   1.540161   120.002   180.000
 C     16   1   2   1.325916   122.697   180.000
 H     16   1   2   1.098263   114.585     0.000
 H     17  16   1   1.098266   122.716   180.000
 H     17  16   1   1.098263   122.718     0.000

---------------------------
INTERNAL COORDINATES (A.U.)
---------------------------
 C      0   0   0   0.000000     0.000     0.000
 C      1   0   0   2.636470     0.000     0.000
 C      2   1   0   2.635624   120.009     0.000
 C      3   2   1   2.635976   119.999     0.000
 C      4   3   2   2.636470   119.992     0.000
 C      5   4   3   2.635624   120.009     0.000
 H      2   1   3   2.078047   119.981   180.000
 H      3   2   1   2.078094   120.013   180.000
 H      5   4   3   2.078047   119.981   180.000
 H      6   5   4   2.078094   120.013   180.000
 C      4   3   2   2.910482   120.005   180.000
 C     11   4   3   2.505618   122.697     0.000
 H     11   4   3   2.075416   114.585   180.000
 H     12  11   4   2.075423   122.716   180.000
 H     12  11   4   2.075416   122.718     0.000
 C      1   2   3   2.910482   120.002   180.000
 C     16   1   2   2.505618   122.697   180.000
 H     16   1   2   2.075416   114.585     0.000
 H     17  16   1   2.075423   122.716   180.000
 H     17  16   1   2.075416   122.718     0.000

---------------------
BASIS SET INFORMATION
---------------------
There are 2 groups of distinct atoms

 Group   1 Type C   : 6s3p contracted to 2s1p pattern {33/3}
 Group   2 Type H   : 3s contracted to 1s pattern {3}

Atom   0C    basis set group =>   1
Atom   1C    basis set group =>   1
Atom   2C    basis set group =>   1
Atom   3C    basis set group =>   1
Atom   4C    basis set group =>   1
Atom   5C    basis set group =>   1
Atom   6H    basis set group =>   2
Atom   7H    basis set group =>   2
Atom   8H    basis set group =>   2
Atom   9H    basis set group =>   2
Atom  10C    basis set group =>   1
Atom  11C    basis set group =>   1
Atom  12H    basis set group =>   2
Atom  13H    basis set group =>   2
Atom  14H    basis set group =>   2
Atom  15C    basis set group =>   1
Atom  16C    basis set group =>   1
Atom  17H    basis set group =>   2
Atom  18H    basis set group =>   2
Atom  19H    basis set group =>   2
------------------------------------------------------------------------------
                           ORCA GTO INTEGRAL CALCULATION
------------------------------------------------------------------------------

                         BASIS SET STATISTICS AND STARTUP INFO

 # of primitive gaussian shells          ...  120
 # of primitive gaussian functions       ...  180
 # of contracted shell                   ...   40
 # of contracted basis functions         ...   60
 Highest angular momentum                ...    1
 Maximum contraction depth               ...    3
 Integral package used                   ... LIBINT
 Integral threshhold             Thresh  ...  2.500e-11
 Primitive cut-off               TCut    ...  2.500e-12


                              INTEGRAL EVALUATION

 One electron integrals                  ... done
 Pre-screening matrix                    ... done
 Shell pair data                         ... done (   0.001 sec)

-------------------------------------------------------------------------------
                                 ORCA SCF
-------------------------------------------------------------------------------

------------
SCF SETTINGS
------------
Hamiltonian:
 Density Functional     Method          .... DFT(GTOs)
 Exchange Functional    Exchange        .... B88
   X-Alpha parameter    XAlpha          ....  0.666667
   Becke's b parameter  XBeta           ....  0.004200
 Correlation Functional Correlation     .... LYP
 LDA part of GGA corr.  LDAOpt          .... VWN-5
 Gradients option       PostSCFGGA      .... off
 Hybrid DFT is turned on
   Fraction HF Exchange ScalHFX         ....  0.200000
   Scaling of DF-GGA-X  ScalDFX         ....  0.720000
   Scaling of DF-GGA-C  ScalDFC         ....  0.810000
   Scaling of DF-LDA-C  ScalLDAC        ....  1.000000
   Perturbative correction              ....  0.000000


General Settings:
 Integral files         IntName         .... dvb_gopt
 Hartree-Fock type      HFTyp           .... RHF
 Total Charge           Charge          ....    0
 Multiplicity           Mult            ....    1
 Number of Electrons    NEL             ....   70
 Basis Dimension        Dim             ....   60
 Nuclear Repulsion      ENuc            ....    450.0061360697 Eh

 Symmetry handling      UseSym         .... ON
 Point group                           .... C2h
 Used point group                      .... C2h
 Number of irreps                      .... 4
   Irrep   Ag has   25 symmetry adapted basis functions (ofs=   0)
   Irrep   Bg has    5 symmetry adapted basis functions (ofs=  25)
   Irrep   Au has    5 symmetry adapted basis functions (ofs=  30)
   Irrep   Bu has   25 symmetry adapted basis functions (ofs=  35)

Convergence Acceleration:
 DIIS                   CNVDIIS         .... on
   Start iteration      DIISMaxIt       ....    12
   Startup error        DIISStart       ....  0.200000
   # of expansion vecs  DIISMaxEq       ....     5
   Bias factor          DIISBfac        ....   1.050
   Max. coefficient     DIISMaxC        ....  10.000
 Newton-Raphson         CNVNR           .... off
 SOSCF                  CNVSOSCF        .... on
   Start iteration      SOSCFMaxIt      ....   150
   Startup grad/error   SOSCFStart      ....  0.003300
 Level Shifting         CNVShift        .... on
   Level shift para.    LevelShift      ....    0.2500
   Turn off err/grad.   ShiftErr        ....    0.0010
 Zerner damping         CNVZerner       .... off
 Static damping         CNVDamp         .... on
   Fraction old density DampFac         ....    0.7000
   Max. Damping (<1)    DampMax         ....    0.9800
   Min. Damping (>=0)   DampMin         ....    0.0000
   Turn off err/grad.   DampErr         ....    0.1000
 Fernandez-Rico         CNVRico         .... off

SCF Procedure:
 Maximum # iterations   MaxIter         ....   125
 SCF integral mode      SCFMode         .... Direct
   Integral package                     .... LIBINT
 Reset frequeny         DirectResetFreq ....    20
 Integral Threshold     Thresh          ....  2.500e-11 Eh
 Primitive CutOff       TCut            ....  2.500e-12 Eh

Convergence Tolerance:
 Convergence Check Mode ConvCheckMode   .... Total+1el-Energy
 Energy Change          TolE            ....  1.000e-08 Eh
 1-El. energy change                    ....  1.000e-05 Eh
 Orbital Gradient       TolG            ....  1.000e-05
 Orbital Rotation angle TolX            ....  1.000e-05
 DIIS Error             TolErr          ....  5.000e-07


Diagonalization of the overlap matrix:
Smallest eigenvalue                        ... 1.714e-01
Time for diagonalization                   ...    0.144 sec
Time for construction of square roots      ...    0.005 sec
Producing symmetrization matrix            ... done (   0.004 sec)
Total time needed                          ...    0.153 sec

--------------
OVERLAP MATRIX
--------------
                  0          1          2          3          4          5    
      0       1.000000   0.248362   0.000000  -0.000000   0.000000   0.000001
      1       0.248362   1.000000   0.000000   0.000000  -0.000000   0.037948
      2       0.000000   0.000000   1.000000   0.000000   0.000000   0.000000
      3      -0.000000   0.000000   0.000000   1.000000   0.000000  -0.031468
      4       0.000000  -0.000000   0.000000   0.000000   1.000000   0.054479
      5       0.000001   0.037948   0.000000  -0.031468   0.054479   1.000000
      6       0.037948   0.367071   0.000000  -0.194886   0.337404   0.248362
      7       0.000000   0.000000   0.214903   0.000000   0.000000   0.000000
      8       0.031468   0.194886   0.000000   0.079065   0.235175   0.000000
      9      -0.054479  -0.337404   0.000000   0.235175  -0.192253   0.000000
     10       0.000000   0.001843   0.000000  -0.003674   0.002121   0.000001
     11       0.001843   0.061276   0.000000  -0.078067   0.045070   0.037989
     12       0.000000   0.000000   0.025662   0.000000   0.000000   0.000000
     13       0.003674   0.078067   0.000000  -0.084157   0.063401   0.062981
     14      -0.002121  -0.045070   0.000000   0.063401  -0.010941   0.000002
     15       0.000000   0.000422   0.000000  -0.001121  -0.000000   0.000000
     16       0.000422   0.026385   0.000000  -0.042381  -0.000000   0.001845
     17       0.000000   0.000000   0.010188   0.000000   0.000000   0.000000
     18       0.001121   0.042381   0.000000  -0.063228  -0.000000   0.003678
     19       0.000000   0.000000   0.000000  -0.000000   0.010188   0.002124
     20       0.000000   0.001845   0.000000  -0.003678  -0.002124   0.000000
     21       0.001845   0.061320   0.000000  -0.078113  -0.045107   0.000423
     22       0.000000   0.000000   0.025682   0.000000   0.000000   0.000000
     23       0.003678   0.078113   0.000000  -0.084186  -0.063445   0.000561
     24       0.002124   0.045107   0.000000  -0.063445  -0.010955   0.000972
     25       0.000001   0.037972   0.000000  -0.031474  -0.054521   0.000000
     26       0.037972   0.367203   0.000000  -0.194850  -0.337534   0.001843
     27       0.000000   0.000000   0.215005   0.000000   0.000000   0.000000
     28       0.031474   0.194850   0.000000   0.079255  -0.235156  -0.000001
     29       0.054521   0.337534   0.000000  -0.235156  -0.192349   0.004243
     30       0.005291   0.095590   0.000000  -0.008439   0.123313   0.060887
     31       0.000092   0.006444   0.000000  -0.008272   0.006762   0.005291
     32       0.000092   0.006450   0.000000  -0.008278  -0.006769   0.000012
     33       0.005292   0.095614   0.000000  -0.008410  -0.123341   0.000092
     34       0.000000   0.000000   0.000000  -0.000000  -0.000000   0.000000
     35       0.000000   0.000293   0.000000  -0.000645  -0.000000   0.000002
     36       0.000000   0.000000   0.000094   0.000000   0.000000   0.000000
     37       0.000000   0.000645   0.000000  -0.001344  -0.000000   0.000008
     38       0.000000   0.000000   0.000000  -0.000000   0.000094   0.000003
     39       0.000000   0.000000   0.000000  -0.000000   0.000000   0.000000
     40       0.000000   0.000012   0.000000  -0.000031   0.000007   0.000000
     41       0.000000   0.000000   0.000004   0.000000   0.000000   0.000000
     42       0.000000   0.000031   0.000000  -0.000075   0.000017   0.000000
     43      -0.000000  -0.000007   0.000000   0.000017   0.000000   0.000000
     44       0.000000   0.000086   0.000000  -0.000181  -0.000038   0.000000
     45       0.000000   0.000000   0.000000  -0.000001   0.000000   0.000000
     46       0.000000   0.000049   0.000000  -0.000099   0.000046   0.000007
     47       0.000000   0.026588   0.000000   0.044587   0.000007   0.000000
     48       0.026588   0.298494   0.000000   0.336362   0.000050   0.001144
     49       0.000000   0.000000   0.164306   0.000000   0.000000   0.000000
     50      -0.044587  -0.336362   0.000000  -0.314114  -0.000071  -0.002437
     51      -0.000007  -0.000050   0.000000  -0.000071   0.164306   0.001315
     52       0.000000   0.001263   0.000000   0.002714  -0.001341   0.000000
     53       0.001263   0.049268   0.000000   0.066607  -0.032926   0.000003
     54       0.000000   0.000000   0.020155   0.000000   0.000000   0.000000
     55      -0.002714  -0.066607   0.000000  -0.078557   0.048795  -0.000010
     56       0.001341   0.032926   0.000000   0.048795  -0.003966   0.000008
     57       0.004445   0.084383   0.000000   0.099133   0.049593   0.001149
     58       0.000056   0.004732   0.000000   0.007603  -0.002529   0.000000
     59       0.000909   0.028273   0.000000   0.027062  -0.031790   0.000003
                  6          7          8          9         10         11    
      0       0.037948   0.000000   0.031468  -0.054479   0.000000   0.001843
      1       0.367071   0.000000   0.194886  -0.337404   0.001843   0.061276
      2       0.000000   0.214903   0.000000   0.000000   0.000000   0.000000
      3      -0.194886   0.000000   0.079065   0.235175  -0.003674  -0.078067
      4       0.337404   0.000000   0.235175  -0.192253   0.002121   0.045070
      5       0.248362   0.000000   0.000000   0.000000   0.000001   0.037989
      6       1.000000   0.000000  -0.000000   0.000000   0.037989   0.367296
      7       0.000000   1.000000   0.000000   0.000000   0.000000   0.000000
      8      -0.000000   0.000000   1.000000   0.000000  -0.062981  -0.389806
      9       0.000000   0.000000   0.000000   1.000000  -0.000002  -0.000015
     10       0.037989   0.000000  -0.062981  -0.000002   1.000000   0.248362
     11       0.367296   0.000000  -0.389806  -0.000015   0.248362   1.000000
     12       0.000000   0.215078   0.000000   0.000000   0.000000   0.000000
     13       0.389806   0.000000  -0.328105  -0.000021  -0.000000   0.000000
     14       0.000015   0.000000  -0.000021   0.215078  -0.000000  -0.000000
     15       0.001845   0.000000  -0.003678  -0.002124   0.000001   0.037972
     16       0.061320   0.000000  -0.078113  -0.045107   0.037972   0.367203
     17       0.000000   0.025682   0.000000   0.000000   0.000000   0.000000
     18       0.078113   0.000000  -0.084186  -0.063445   0.031474   0.194850
     19       0.045107   0.000000  -0.063445  -0.010955   0.054521   0.337534
     20       0.000423   0.000000  -0.000561  -0.000972   0.000000   0.001843
     21       0.026400   0.000000  -0.021194  -0.036728   0.001843   0.061281
     22       0.000000   0.010194   0.000000   0.000000   0.000000   0.000000
     23       0.021194   0.000000  -0.008155  -0.031798  -0.000001  -0.000016
     24       0.036728   0.000000  -0.031798  -0.044910   0.004243   0.090150
     25       0.001843   0.000000   0.000001  -0.004243   0.000000   0.000422
     26       0.061281   0.000000   0.000016  -0.090150   0.000422   0.026380
     27       0.000000   0.025664   0.000000   0.000000   0.000000   0.000000
     28      -0.000016   0.000000   0.025664   0.000026  -0.000560  -0.021189
     29       0.090150   0.000000   0.000026  -0.120767   0.000970   0.036695
     30       0.485213   0.000000   0.232028   0.401750   0.005292   0.095605
     31       0.095597   0.000000  -0.111017   0.054353   0.060884   0.485198
     32       0.001847   0.000000  -0.001662  -0.002879   0.000092   0.006449
     33       0.006447   0.000000   0.001724  -0.010549   0.000012   0.001846
     34       0.000002   0.000000  -0.000008  -0.000003   0.000000   0.001145
     35       0.001528   0.000000  -0.002886  -0.000960   0.001145   0.046553
     36       0.000000   0.000509   0.000000   0.000000   0.000000   0.000000
     37       0.002886   0.000000  -0.005092  -0.001863   0.002438   0.062159
     38       0.000960   0.000000  -0.001863  -0.000111   0.001317   0.033566
     39       0.000000   0.000000  -0.000000  -0.000000   0.000000   0.000206
     40       0.000274   0.000000  -0.000605  -0.000013   0.000206   0.017611
     41       0.000000   0.000088   0.000000   0.000000   0.000000   0.000000
     42       0.000605   0.000000  -0.001265  -0.000029   0.000578   0.029312
     43       0.000013   0.000000  -0.000029   0.000088   0.000018   0.000919
     44       0.000192   0.000000  -0.000348  -0.000188   0.000069   0.005410
     45       0.000012   0.000000  -0.000028  -0.000000   0.000006   0.001166
     46       0.001372   0.000000  -0.002449   0.000570   0.001328   0.036482
     47       0.001144   0.000000   0.002437  -0.001315   0.000000   0.000002
     48       0.046534   0.000000   0.062143  -0.033540   0.000002   0.001527
     49       0.000000   0.018926   0.000000   0.000000   0.000000   0.000000
     50      -0.062143   0.000000  -0.071889   0.049015  -0.000008  -0.002884
     51       0.033540   0.000000   0.049015  -0.007529   0.000003   0.000959
     52       0.000003   0.000000   0.000010  -0.000008   0.000000   0.000000
     53       0.001892   0.000000   0.002919  -0.002296   0.000000   0.000032
     54       0.000000   0.000634   0.000000   0.000000   0.000000   0.000000
     55      -0.002919   0.000000  -0.004006   0.003649  -0.000000  -0.000069
     56       0.002296   0.000000   0.003649  -0.002236   0.000000   0.000037
     57       0.033093   0.000000   0.048007  -0.003725   0.000005   0.001035
     58       0.000178   0.000000   0.000318  -0.000182   0.000000   0.000002
     59       0.000866   0.000000   0.000981  -0.001304   0.000000   0.000039
                 12         13         14         15         16         17    
      0       0.000000   0.003674  -0.002121   0.000000   0.000422   0.000000
      1       0.000000   0.078067  -0.045070   0.000422   0.026385   0.000000
      2       0.025662   0.000000   0.000000   0.000000   0.000000   0.010188
      3       0.000000  -0.084157   0.063401  -0.001121  -0.042381   0.000000
      4       0.000000   0.063401  -0.010941  -0.000000  -0.000000   0.000000
      5       0.000000   0.062981   0.000002   0.000000   0.001845   0.000000
      6       0.000000   0.389806   0.000015   0.001845   0.061320   0.000000
      7       0.215078   0.000000   0.000000   0.000000   0.000000   0.025682
      8       0.000000  -0.328105  -0.000021  -0.003678  -0.078113   0.000000
      9       0.000000  -0.000021   0.215078  -0.002124  -0.045107   0.000000
     10       0.000000  -0.000000  -0.000000   0.000001   0.037972   0.000000
     11       0.000000   0.000000  -0.000000   0.037972   0.367203   0.000000
     12       1.000000   0.000000   0.000000   0.000000   0.000000   0.215005
     13       0.000000   1.000000  -0.000000  -0.031474  -0.194850   0.000000
     14       0.000000  -0.000000   1.000000  -0.054521  -0.337534   0.000000
     15       0.000000  -0.031474  -0.054521   1.000000   0.248362   0.000000
     16       0.000000  -0.194850  -0.337534   0.248362   1.000000   0.000000
     17       0.215005   0.000000   0.000000   0.000000   0.000000   1.000000
     18       0.000000   0.079255  -0.235156   0.000000  -0.000000   0.000000
     19       0.000000  -0.235156  -0.192349   0.000000   0.000000   0.000000
     20       0.000000   0.000001  -0.004243   0.000001   0.037948   0.000000
     21       0.000000   0.000016  -0.090150   0.037948   0.367071   0.000000
     22       0.025664   0.000000   0.000000   0.000000   0.000000   0.214903
     23       0.000000   0.025664   0.000026  -0.031468  -0.194886   0.000000
     24       0.000000   0.000026  -0.120767   0.054479   0.337404   0.000000
     25       0.000000   0.000560  -0.000970   0.000000   0.001843   0.000000
     26       0.000000   0.021189  -0.036695   0.001843   0.061276   0.000000
     27       0.010185   0.000000   0.000000   0.000000   0.000000   0.025662
     28       0.000000  -0.008169   0.031787  -0.003674  -0.078067   0.000000
     29       0.000000   0.031787  -0.044864   0.002121   0.045070   0.000000
     30       0.000000   0.111020   0.054366   0.000092   0.006450   0.000000
     31       0.000000  -0.232071   0.401715   0.005292   0.095614   0.000000
     32       0.000000  -0.001721  -0.010552   0.005291   0.095590   0.000000
     33       0.000000   0.001661  -0.002876   0.000092   0.006444   0.000000
     34       0.000000  -0.002438  -0.001317   0.000000   0.026588   0.000000
     35       0.000000  -0.062159  -0.033566   0.026588   0.298494   0.000000
     36       0.018934   0.000000   0.000000   0.000000   0.000000   0.164306
     37       0.000000  -0.071889  -0.049045   0.044587   0.336362   0.000000
     38       0.000000  -0.049045  -0.007550   0.000007   0.000050   0.000000
     39       0.000000  -0.000578  -0.000018   0.000000   0.001263   0.000000
     40       0.000000  -0.029312  -0.000919   0.001263   0.049268   0.000000
     41       0.006590   0.000000   0.000000   0.000000   0.000000   0.020155
     42       0.000000  -0.045568  -0.001635   0.002714   0.066607   0.000000
     43       0.000000  -0.001635   0.006539  -0.001341  -0.032926   0.000000
     44       0.000000  -0.007023  -0.005753   0.004445   0.084383   0.000000
     45       0.000000  -0.002158  -0.000049   0.000056   0.004732   0.000000
     46       0.000000  -0.049431   0.017938   0.000909   0.028273   0.000000
     47       0.000000   0.000008  -0.000003   0.000000   0.000000   0.000000
     48       0.000000   0.002884  -0.000959   0.000000   0.000293   0.000000
     49       0.000508   0.000000   0.000000   0.000000   0.000000   0.000094
     50       0.000000  -0.005089   0.001861  -0.000000  -0.000645   0.000000
     51       0.000000   0.001861  -0.000111  -0.000000  -0.000000   0.000000
     52       0.000000   0.000000  -0.000000   0.000000   0.000000   0.000000
     53       0.000000   0.000069  -0.000037   0.000000   0.000012   0.000000
     54       0.000010   0.000000   0.000000   0.000000   0.000000   0.000004
     55       0.000000  -0.000142   0.000081  -0.000000  -0.000031   0.000000
     56       0.000000   0.000081  -0.000033   0.000000   0.000007   0.000000
     57       0.000000   0.001928  -0.000099   0.000000   0.000086   0.000000
     58       0.000000   0.000004  -0.000002   0.000000   0.000000   0.000000
     59       0.000000   0.000067  -0.000057   0.000000   0.000049   0.000000
                 18         19         20         21         22         23    
      0       0.001121   0.000000   0.000000   0.001845   0.000000   0.003678
      1       0.042381   0.000000   0.001845   0.061320   0.000000   0.078113
      2       0.000000   0.000000   0.000000   0.000000   0.025682   0.000000
      3      -0.063228  -0.000000  -0.003678  -0.078113   0.000000  -0.084186
      4      -0.000000   0.010188  -0.002124  -0.045107   0.000000  -0.063445
      5       0.003678   0.002124   0.000000   0.000423   0.000000   0.000561
      6       0.078113   0.045107   0.000423   0.026400   0.000000   0.021194
      7       0.000000   0.000000   0.000000   0.000000   0.010194   0.000000
      8      -0.084186  -0.063445  -0.000561  -0.021194   0.000000  -0.008155
      9      -0.063445  -0.010955  -0.000972  -0.036728   0.000000  -0.031798
     10       0.031474   0.054521   0.000000   0.001843   0.000000  -0.000001
     11       0.194850   0.337534   0.001843   0.061281   0.000000  -0.000016
     12       0.000000   0.000000   0.000000   0.000000   0.025664   0.000000
     13       0.079255  -0.235156   0.000001   0.000016   0.000000   0.025664
     14      -0.235156  -0.192349  -0.004243  -0.090150   0.000000   0.000026
     15       0.000000   0.000000   0.000001   0.037948   0.000000  -0.031468
     16      -0.000000   0.000000   0.037948   0.367071   0.000000  -0.194886
     17       0.000000   0.000000   0.000000   0.000000   0.214903   0.000000
     18       1.000000   0.000000   0.031468   0.194886   0.000000   0.079065
     19       0.000000   1.000000  -0.054479  -0.337404   0.000000   0.235175
     20       0.031468  -0.054479   1.000000   0.248362   0.000000  -0.000000
     21       0.194886  -0.337404   0.248362   1.000000   0.000000   0.000000
     22       0.000000   0.000000   0.000000   0.000000   1.000000   0.000000
     23       0.079065   0.235175  -0.000000   0.000000   0.000000   1.000000
     24       0.235175  -0.192253  -0.000000   0.000000   0.000000   0.000000
     25       0.003674  -0.002121   0.000001   0.037989   0.000000   0.062981
     26       0.078067  -0.045070   0.037989   0.367296   0.000000   0.389806
     27       0.000000   0.000000   0.000000   0.000000   0.215078   0.000000
     28      -0.084157   0.063401  -0.062981  -0.389806   0.000000  -0.328105
     29       0.063401  -0.010941  -0.000002  -0.000015   0.000000  -0.000021
     30       0.008278   0.006769   0.000012   0.001847   0.000000   0.001662
     31       0.008410   0.123341   0.000092   0.006447   0.000000  -0.001724
     32       0.008439  -0.123313   0.060887   0.485213   0.000000  -0.232028
     33       0.008272  -0.006762   0.005291   0.095597   0.000000   0.111017
     34      -0.044587  -0.000007   0.000000   0.001144   0.000000  -0.002437
     35      -0.336362  -0.000050   0.001144   0.046534   0.000000  -0.062143
     36       0.000000   0.000000   0.000000   0.000000   0.018926   0.000000
     37      -0.314114  -0.000071   0.002437   0.062143   0.000000  -0.071889
     38      -0.000071   0.164306  -0.001315  -0.033540   0.000000   0.049015
     39      -0.002714   0.001341   0.000000   0.000003   0.000000  -0.000010
     40      -0.066607   0.032926   0.000003   0.001892   0.000000  -0.002919
     41       0.000000   0.000000   0.000000   0.000000   0.000634   0.000000
     42      -0.078557   0.048795   0.000010   0.002919   0.000000  -0.004006
     43       0.048795  -0.003966  -0.000008  -0.002296   0.000000   0.003649
     44      -0.099133  -0.049593   0.001149   0.033093   0.000000  -0.048007
     45      -0.007603   0.002529   0.000000   0.000178   0.000000  -0.000318
     46      -0.027062   0.031790   0.000003   0.000866   0.000000  -0.000981
     47       0.000000   0.000000   0.000000   0.000002   0.000000   0.000008
     48       0.000645   0.000000   0.000002   0.001528   0.000000   0.002886
     49       0.000000   0.000000   0.000000   0.000000   0.000509   0.000000
     50      -0.001344  -0.000000  -0.000008  -0.002886   0.000000  -0.005092
     51      -0.000000   0.000094  -0.000003  -0.000960   0.000000  -0.001863
     52       0.000000  -0.000000   0.000000   0.000000   0.000000   0.000000
     53       0.000031  -0.000007   0.000000   0.000274   0.000000   0.000605
     54       0.000000   0.000000   0.000000   0.000000   0.000088   0.000000
     55      -0.000075   0.000017  -0.000000  -0.000605   0.000000  -0.001265
     56       0.000017   0.000000  -0.000000  -0.000013   0.000000  -0.000029
     57       0.000181   0.000038   0.000000   0.000192   0.000000   0.000348
     58       0.000001  -0.000000   0.000000   0.000012   0.000000   0.000028
     59       0.000099  -0.000046   0.000007   0.001372   0.000000   0.002449
                 24         25         26         27         28         29    
      0       0.002124   0.000001   0.037972   0.000000   0.031474   0.054521
      1       0.045107   0.037972   0.367203   0.000000   0.194850   0.337534
      2       0.000000   0.000000   0.000000   0.215005   0.000000   0.000000
      3      -0.063445  -0.031474  -0.194850   0.000000   0.079255  -0.235156
      4      -0.010955  -0.054521  -0.337534   0.000000  -0.235156  -0.192349
      5       0.000972   0.000000   0.001843   0.000000  -0.000001   0.004243
      6       0.036728   0.001843   0.061281   0.000000  -0.000016   0.090150
      7       0.000000   0.000000   0.000000   0.025664   0.000000   0.000000
      8      -0.031798   0.000001   0.000016   0.000000   0.025664   0.000026
      9      -0.044910  -0.004243  -0.090150   0.000000   0.000026  -0.120767
     10       0.004243   0.000000   0.000422   0.000000  -0.000560   0.000970
     11       0.090150   0.000422   0.026380   0.000000  -0.021189   0.036695
     12       0.000000   0.000000   0.000000   0.010185   0.000000   0.000000
     13       0.000026   0.000560   0.021189   0.000000  -0.008169   0.031787
     14      -0.120767  -0.000970  -0.036695   0.000000   0.031787  -0.044864
     15       0.054479   0.000000   0.001843   0.000000  -0.003674   0.002121
     16       0.337404   0.001843   0.061276   0.000000  -0.078067   0.045070
     17       0.000000   0.000000   0.000000   0.025662   0.000000   0.000000
     18       0.235175   0.003674   0.078067   0.000000  -0.084157   0.063401
     19      -0.192253  -0.002121  -0.045070   0.000000   0.063401  -0.010941
     20      -0.000000   0.000001   0.037989   0.000000  -0.062981  -0.000002
     21       0.000000   0.037989   0.367296   0.000000  -0.389806  -0.000015
     22       0.000000   0.000000   0.000000   0.215078   0.000000   0.000000
     23       0.000000   0.062981   0.389806   0.000000  -0.328105  -0.000021
     24       1.000000   0.000002   0.000015   0.000000  -0.000021   0.215078
     25       0.000002   1.000000   0.248362   0.000000   0.000000   0.000000
     26       0.000015   0.248362   1.000000   0.000000  -0.000000   0.000000
     27       0.000000   0.000000   0.000000   1.000000   0.000000   0.000000
     28      -0.000021   0.000000  -0.000000   0.000000   1.000000  -0.000000
     29       0.215078   0.000000   0.000000   0.000000  -0.000000   1.000000
     30       0.002879   0.000092   0.006449   0.000000   0.001721   0.010552
     31       0.010549   0.000012   0.001846   0.000000  -0.001661   0.002876
     32      -0.401750   0.005292   0.095605   0.000000  -0.111020  -0.054366
     33      -0.054353   0.060884   0.485198   0.000000   0.232071  -0.401715
     34       0.001315   0.000000   0.000002   0.000000  -0.000008   0.000003
     35       0.033540   0.000002   0.001527   0.000000  -0.002884   0.000959
     36       0.000000   0.000000   0.000000   0.000508   0.000000   0.000000
     37       0.049015   0.000008   0.002884   0.000000  -0.005089   0.001861
     38      -0.007529  -0.000003  -0.000959   0.000000   0.001861  -0.000111
     39       0.000008   0.000000   0.000000   0.000000  -0.000000   0.000000
     40       0.002296   0.000000   0.000032   0.000000  -0.000069   0.000037
     41       0.000000   0.000000   0.000000   0.000010   0.000000   0.000000
     42       0.003649   0.000000   0.000069   0.000000  -0.000142   0.000081
     43      -0.002236  -0.000000  -0.000037   0.000000   0.000081  -0.000033
     44       0.003725   0.000005   0.001035   0.000000  -0.001928   0.000099
     45       0.000182   0.000000   0.000002   0.000000  -0.000004   0.000002
     46       0.001304   0.000000   0.000039   0.000000  -0.000067   0.000057
     47       0.000003   0.000000   0.001145   0.000000   0.002438   0.001317
     48       0.000960   0.001145   0.046553   0.000000   0.062159   0.033566
     49       0.000000   0.000000   0.000000   0.018934   0.000000   0.000000
     50      -0.001863  -0.002438  -0.062159   0.000000  -0.071889  -0.049045
     51      -0.000111  -0.001317  -0.033566   0.000000  -0.049045  -0.007550
     52       0.000000   0.000000   0.000206   0.000000   0.000578   0.000018
     53       0.000013   0.000206   0.017611   0.000000   0.029312   0.000919
     54       0.000000   0.000000   0.000000   0.006590   0.000000   0.000000
     55      -0.000029  -0.000578  -0.029312   0.000000  -0.045568  -0.001635
     56       0.000088  -0.000018  -0.000919   0.000000  -0.001635   0.006539
     57       0.000188   0.000069   0.005410   0.000000   0.007023   0.005753
     58       0.000000   0.000006   0.001166   0.000000   0.002158   0.000049
     59      -0.000570   0.001328   0.036482   0.000000   0.049431  -0.017938
                 30         31         32         33         34         35    
      0       0.005291   0.000092   0.000092   0.005292   0.000000   0.000000
      1       0.095590   0.006444   0.006450   0.095614   0.000000   0.000293
      2       0.000000   0.000000   0.000000   0.000000   0.000000   0.000000
      3      -0.008439  -0.008272  -0.008278  -0.008410  -0.000000  -0.000645
      4       0.123313   0.006762  -0.006769  -0.123341  -0.000000  -0.000000
      5       0.060887   0.005291   0.000012   0.000092   0.000000   0.000002
      6       0.485213   0.095597   0.001847   0.006447   0.000002   0.001528
      7       0.000000   0.000000   0.000000   0.000000   0.000000   0.000000
      8       0.232028  -0.111017  -0.001662   0.001724  -0.000008  -0.002886
      9       0.401750   0.054353  -0.002879  -0.010549  -0.000003  -0.000960
     10       0.005292   0.060884   0.000092   0.000012   0.000000   0.001145
     11       0.095605   0.485198   0.006449   0.001846   0.001145   0.046553
     12       0.000000   0.000000   0.000000   0.000000   0.000000   0.000000
     13       0.111020  -0.232071  -0.001721   0.001661  -0.002438  -0.062159
     14       0.054366   0.401715  -0.010552  -0.002876  -0.001317  -0.033566
     15       0.000092   0.005292   0.005291   0.000092   0.000000   0.026588
     16       0.006450   0.095614   0.095590   0.006444   0.026588   0.298494
     17       0.000000   0.000000   0.000000   0.000000   0.000000   0.000000
     18       0.008278   0.008410   0.008439   0.008272  -0.044587  -0.336362
     19       0.006769   0.123341  -0.123313  -0.006762  -0.000007  -0.000050
     20       0.000012   0.000092   0.060887   0.005291   0.000000   0.001144
     21       0.001847   0.006447   0.485213   0.095597   0.001144   0.046534
     22       0.000000   0.000000   0.000000   0.000000   0.000000   0.000000
     23       0.001662  -0.001724  -0.232028   0.111017  -0.002437  -0.062143
     24       0.002879   0.010549  -0.401750  -0.054353   0.001315   0.033540
     25       0.000092   0.000012   0.005292   0.060884   0.000000   0.000002
     26       0.006449   0.001846   0.095605   0.485198   0.000002   0.001527
     27       0.000000   0.000000   0.000000   0.000000   0.000000   0.000000
     28       0.001721  -0.001661  -0.111020   0.232071  -0.000008  -0.002884
     29       0.010552   0.002876  -0.054366  -0.401715   0.000003   0.000959
     30       1.000000   0.050007   0.000112   0.000762   0.000000   0.000158
     31       0.050007   1.000000   0.000762   0.000111   0.001017   0.030489
     32       0.000112   0.000762   1.000000   0.050007   0.001017   0.030486
     33       0.000762   0.000111   0.050007   1.000000   0.000000   0.000158
     34       0.000000   0.001017   0.001017   0.000000   1.000000   0.248362
     35       0.000158   0.030489   0.030486   0.000158   0.248362   1.000000
     36       0.000000   0.000000   0.000000   0.000000   0.000000   0.000000
     37       0.000292   0.027520   0.027525   0.000292   0.000000   0.000000
     38       0.000151   0.035234  -0.035224  -0.000151  -0.000000  -0.000000
     39       0.000000   0.001481   0.000005   0.000000   0.000003   0.044724
     40       0.000057   0.039274   0.001132   0.000002   0.044724   0.402773
     41       0.000000   0.000000   0.000000   0.000000   0.000000   0.000000
     42       0.000123   0.051540   0.001243   0.000004   0.040095   0.223814
     43       0.000026   0.022401  -0.001693  -0.000003  -0.062443  -0.348558
     44       0.000015   0.002796   0.055469   0.000207   0.061086   0.486010
     45       0.000003   0.004166   0.000199   0.000000   0.005781   0.101894
     46       0.000546   0.129838   0.000265   0.000002   0.005781   0.101891
     47       0.001017   0.000000   0.000000   0.001017   0.000000   0.000000
     48       0.030486   0.000158   0.000158   0.030489   0.000000   0.000001
     49       0.000000   0.000000   0.000000   0.000000   0.000000   0.000000
     50      -0.027525  -0.000292  -0.000292  -0.027520   0.000000  -0.000002
     51       0.035224   0.000151  -0.000151  -0.035234   0.000000  -0.000000
     52       0.000005   0.000000   0.000000   0.001481   0.000000   0.000000
     53       0.001132   0.000002   0.000057   0.039274   0.000000   0.000000
     54       0.000000   0.000000   0.000000   0.000000   0.000000   0.000000
     55      -0.001243  -0.000004  -0.000123  -0.051540   0.000000  -0.000000
     56       0.001693   0.000003  -0.000026  -0.022401   0.000000   0.000000
     57       0.055469   0.000207   0.000015   0.002796   0.000000   0.000000
     58       0.000199   0.000000   0.000003   0.004166   0.000000   0.000000
     59       0.000265   0.000002   0.000546   0.129838   0.000000   0.000000
                 36         37         38         39         40         41    
      0       0.000000   0.000000   0.000000   0.000000   0.000000   0.000000
      1       0.000000   0.000645   0.000000   0.000000   0.000012   0.000000
      2       0.000094   0.000000   0.000000   0.000000   0.000000   0.000004
      3       0.000000  -0.001344  -0.000000  -0.000000  -0.000031   0.000000
      4       0.000000  -0.000000   0.000094   0.000000   0.000007   0.000000
      5       0.000000   0.000008   0.000003   0.000000   0.000000   0.000000
      6       0.000000   0.002886   0.000960   0.000000   0.000274   0.000000
      7       0.000509   0.000000   0.000000   0.000000   0.000000   0.000088
      8       0.000000  -0.005092  -0.001863  -0.000000  -0.000605   0.000000
      9       0.000000  -0.001863  -0.000111  -0.000000  -0.000013   0.000000
     10       0.000000   0.002438   0.001317   0.000000   0.000206   0.000000
     11       0.000000   0.062159   0.033566   0.000206   0.017611   0.000000
     12       0.018934   0.000000   0.000000   0.000000   0.000000   0.006590
     13       0.000000  -0.071889  -0.049045  -0.000578  -0.029312   0.000000
     14       0.000000  -0.049045  -0.007550  -0.000018  -0.000919   0.000000
     15       0.000000   0.044587   0.000007   0.000000   0.001263   0.000000
     16       0.000000   0.336362   0.000050   0.001263   0.049268   0.000000
     17       0.164306   0.000000   0.000000   0.000000   0.000000   0.020155
     18       0.000000  -0.314114  -0.000071  -0.002714  -0.066607   0.000000
     19       0.000000  -0.000071   0.164306   0.001341   0.032926   0.000000
     20       0.000000   0.002437  -0.001315   0.000000   0.000003   0.000000
     21       0.000000   0.062143  -0.033540   0.000003   0.001892   0.000000
     22       0.018926   0.000000   0.000000   0.000000   0.000000   0.000634
     23       0.000000  -0.071889   0.049015  -0.000010  -0.002919   0.000000
     24       0.000000   0.049015  -0.007529   0.000008   0.002296   0.000000
     25       0.000000   0.000008  -0.000003   0.000000   0.000000   0.000000
     26       0.000000   0.002884  -0.000959   0.000000   0.000032   0.000000
     27       0.000508   0.000000   0.000000   0.000000   0.000000   0.000010
     28       0.000000  -0.005089   0.001861  -0.000000  -0.000069   0.000000
     29       0.000000   0.001861  -0.000111   0.000000   0.000037   0.000000
     30       0.000000   0.000292   0.000151   0.000000   0.000057   0.000000
     31       0.000000   0.027520   0.035234   0.001481   0.039274   0.000000
     32       0.000000   0.027525  -0.035224   0.000005   0.001132   0.000000
     33       0.000000   0.000292  -0.000151   0.000000   0.000002   0.000000
     34       0.000000   0.000000  -0.000000   0.000003   0.044724   0.000000
     35       0.000000   0.000000  -0.000000   0.044724   0.402773   0.000000
     36       1.000000   0.000000   0.000000   0.000000   0.000000   0.243271
     37       0.000000   1.000000  -0.000000  -0.040095  -0.223814   0.000000
     38       0.000000  -0.000000   1.000000   0.062443   0.348558   0.000000
     39       0.000000  -0.040095   0.062443   1.000000   0.248362   0.000000
     40       0.000000  -0.223814   0.348558   0.248362   1.000000   0.000000
     41       0.243271   0.000000   0.000000   0.000000   0.000000   1.000000
     42       0.000000   0.076616   0.259540  -0.000000   0.000000   0.000000
     43       0.000000   0.259540  -0.160924   0.000000   0.000000   0.000000
     44       0.000000  -0.193160  -0.422348   0.005781   0.101891   0.000000
     45       0.000000  -0.111303   0.068444   0.061085   0.486008   0.000000
     46       0.000000  -0.015924   0.129686   0.061086   0.486010   0.000000
     47       0.000000   0.000000   0.000000   0.000000   0.000000   0.000000
     48       0.000000   0.000002   0.000000   0.000000   0.000000   0.000000
     49       0.000000   0.000000   0.000000   0.000000   0.000000   0.000000
     50       0.000000  -0.000005  -0.000000   0.000000  -0.000000   0.000000
     51       0.000000  -0.000000   0.000000   0.000000   0.000000   0.000000
     52       0.000000   0.000000   0.000000   0.000000   0.000000   0.000000
     53       0.000000   0.000000  -0.000000   0.000000   0.000000   0.000000
     54       0.000000   0.000000   0.000000   0.000000   0.000000   0.000000
     55       0.000000  -0.000000   0.000000   0.000000  -0.000000   0.000000
     56       0.000000   0.000000   0.000000   0.000000   0.000000   0.000000
     57       0.000000   0.000001   0.000000   0.000000   0.000000   0.000000
     58       0.000000   0.000000  -0.000000   0.000000   0.000000   0.000000
     59       0.000000   0.000000  -0.000000   0.000000   0.000000   0.000000
                 42         43         44         45         46         47    
      0       0.000000  -0.000000   0.000000   0.000000   0.000000   0.000000
      1       0.000031  -0.000007   0.000086   0.000000   0.000049   0.026588
      2       0.000000   0.000000   0.000000   0.000000   0.000000   0.000000
      3      -0.000075   0.000017  -0.000181  -0.000001  -0.000099   0.044587
      4       0.000017   0.000000  -0.000038   0.000000   0.000046   0.000007
      5       0.000000   0.000000   0.000000   0.000000   0.000007   0.000000
      6       0.000605   0.000013   0.000192   0.000012   0.001372   0.001144
      7       0.000000   0.000000   0.000000   0.000000   0.000000   0.000000
      8      -0.001265  -0.000029  -0.000348  -0.000028  -0.002449   0.002437
      9      -0.000029   0.000088  -0.000188  -0.000000   0.000570  -0.001315
     10       0.000578   0.000018   0.000069   0.000006   0.001328   0.000000
     11       0.029312   0.000919   0.005410   0.001166   0.036482   0.000002
     12       0.000000   0.000000   0.000000   0.000000   0.000000   0.000000
     13      -0.045568  -0.001635  -0.007023  -0.002158  -0.049431   0.000008
     14      -0.001635   0.006539  -0.005753  -0.000049   0.017938  -0.000003
     15       0.002714  -0.001341   0.004445   0.000056   0.000909   0.000000
     16       0.066607  -0.032926   0.084383   0.004732   0.028273   0.000000
     17       0.000000   0.000000   0.000000   0.000000   0.000000   0.000000
     18      -0.078557   0.048795  -0.099133  -0.007603  -0.027062   0.000000
     19       0.048795  -0.003966  -0.049593   0.002529   0.031790   0.000000
     20       0.000010  -0.000008   0.001149   0.000000   0.000003   0.000000
     21       0.002919  -0.002296   0.033093   0.000178   0.000866   0.000002
     22       0.000000   0.000000   0.000000   0.000000   0.000000   0.000000
     23      -0.004006   0.003649  -0.048007  -0.000318  -0.000981   0.000008
     24       0.003649  -0.002236   0.003725   0.000182   0.001304   0.000003
     25       0.000000  -0.000000   0.000005   0.000000   0.000000   0.000000
     26       0.000069  -0.000037   0.001035   0.000002   0.000039   0.001145
     27       0.000000   0.000000   0.000000   0.000000   0.000000   0.000000
     28      -0.000142   0.000081  -0.001928  -0.000004  -0.000067   0.002438
     29       0.000081  -0.000033   0.000099   0.000002   0.000057   0.001317
     30       0.000123   0.000026   0.000015   0.000003   0.000546   0.001017
     31       0.051540   0.022401   0.002796   0.004166   0.129838   0.000000
     32       0.001243  -0.001693   0.055469   0.000199   0.000265   0.000000
     33       0.000004  -0.000003   0.000207   0.000000   0.000002   0.001017
     34       0.040095  -0.062443   0.061086   0.005781   0.005781   0.000000
     35       0.223814  -0.348558   0.486010   0.101894   0.101891   0.000000
     36       0.000000   0.000000   0.000000   0.000000   0.000000   0.000000
     37       0.076616   0.259540  -0.193160  -0.111303  -0.015924   0.000000
     38       0.259540  -0.160924  -0.422348   0.068444   0.129686   0.000000
     39      -0.000000   0.000000   0.005781   0.061085   0.061086   0.000000
     40       0.000000   0.000000   0.101891   0.486008   0.486010   0.000000
     41       0.000000   0.000000   0.000000   0.000000   0.000000   0.000000
     42       1.000000   0.000000   0.015924  -0.464422   0.193160   0.000000
     43       0.000000   1.000000  -0.129686   0.000087   0.422348   0.000000
     44       0.015924  -0.129686   1.000000   0.048313   0.014144   0.000000
     45      -0.464422   0.000087   0.048313   1.000000   0.152207   0.000000
     46       0.193160   0.422348   0.014144   0.152207   1.000000   0.000000
     47       0.000000   0.000000   0.000000   0.000000   0.000000   1.000000
     48       0.000000  -0.000000   0.000000   0.000000   0.000000   0.248362
     49       0.000000   0.000000   0.000000   0.000000   0.000000   0.000000
     50      -0.000000   0.000000  -0.000001  -0.000000  -0.000000  -0.000000
     51       0.000000   0.000000  -0.000000   0.000000   0.000000   0.000000
     52       0.000000   0.000000   0.000000   0.000000   0.000000   0.000003
     53       0.000000  -0.000000   0.000000   0.000000   0.000000   0.044724
     54       0.000000   0.000000   0.000000   0.000000   0.000000   0.000000
     55      -0.000000   0.000000  -0.000000   0.000000  -0.000000  -0.040095
     56       0.000000  -0.000000   0.000000   0.000000   0.000000   0.062443
     57       0.000000  -0.000000   0.000000   0.000000   0.000000   0.061086
     58       0.000000   0.000000   0.000000   0.000000   0.000000   0.005781
     59       0.000000  -0.000000   0.000000   0.000000   0.000000   0.005781
                 48         49         50         51         52         53    
      0       0.026588   0.000000  -0.044587  -0.000007   0.000000   0.001263
      1       0.298494   0.000000  -0.336362  -0.000050   0.001263   0.049268
      2       0.000000   0.164306   0.000000   0.000000   0.000000   0.000000
      3       0.336362   0.000000  -0.314114  -0.000071   0.002714   0.066607
      4       0.000050   0.000000  -0.000071   0.164306  -0.001341  -0.032926
      5       0.001144   0.000000  -0.002437   0.001315   0.000000   0.000003
      6       0.046534   0.000000  -0.062143   0.033540   0.000003   0.001892
      7       0.000000   0.018926   0.000000   0.000000   0.000000   0.000000
      8       0.062143   0.000000  -0.071889   0.049015   0.000010   0.002919
      9      -0.033540   0.000000   0.049015  -0.007529  -0.000008  -0.002296
     10       0.000002   0.000000  -0.000008   0.000003   0.000000   0.000000
     11       0.001527   0.000000  -0.002884   0.000959   0.000000   0.000032
     12       0.000000   0.000508   0.000000   0.000000   0.000000   0.000000
     13       0.002884   0.000000  -0.005089   0.001861   0.000000   0.000069
     14      -0.000959   0.000000   0.001861  -0.000111  -0.000000  -0.000037
     15       0.000000   0.000000  -0.000000  -0.000000   0.000000   0.000000
     16       0.000293   0.000000  -0.000645  -0.000000   0.000000   0.000012
     17       0.000000   0.000094   0.000000   0.000000   0.000000   0.000000
     18       0.000645   0.000000  -0.001344  -0.000000   0.000000   0.000031
     19       0.000000   0.000000  -0.000000   0.000094  -0.000000  -0.000007
     20       0.000002   0.000000  -0.000008  -0.000003   0.000000   0.000000
     21       0.001528   0.000000  -0.002886  -0.000960   0.000000   0.000274
     22       0.000000   0.000509   0.000000   0.000000   0.000000   0.000000
     23       0.002886   0.000000  -0.005092  -0.001863   0.000000   0.000605
     24       0.000960   0.000000  -0.001863  -0.000111   0.000000   0.000013
     25       0.001145   0.000000  -0.002438  -0.001317   0.000000   0.000206
     26       0.046553   0.000000  -0.062159  -0.033566   0.000206   0.017611
     27       0.000000   0.018934   0.000000   0.000000   0.000000   0.000000
     28       0.062159   0.000000  -0.071889  -0.049045   0.000578   0.029312
     29       0.033566   0.000000  -0.049045  -0.007550   0.000018   0.000919
     30       0.030486   0.000000  -0.027525   0.035224   0.000005   0.001132
     31       0.000158   0.000000  -0.000292   0.000151   0.000000   0.000002
     32       0.000158   0.000000  -0.000292  -0.000151   0.000000   0.000057
     33       0.030489   0.000000  -0.027520  -0.035234   0.001481   0.039274
     34       0.000000   0.000000   0.000000   0.000000   0.000000   0.000000
     35       0.000001   0.000000  -0.000002  -0.000000   0.000000   0.000000
     36       0.000000   0.000000   0.000000   0.000000   0.000000   0.000000
     37       0.000002   0.000000  -0.000005  -0.000000   0.000000   0.000000
     38       0.000000   0.000000  -0.000000   0.000000   0.000000  -0.000000
     39       0.000000   0.000000   0.000000   0.000000   0.000000   0.000000
     40       0.000000   0.000000  -0.000000   0.000000   0.000000   0.000000
     41       0.000000   0.000000   0.000000   0.000000   0.000000   0.000000
     42       0.000000   0.000000  -0.000000   0.000000   0.000000   0.000000
     43      -0.000000   0.000000   0.000000   0.000000   0.000000  -0.000000
     44       0.000000   0.000000  -0.000001  -0.000000   0.000000   0.000000
     45       0.000000   0.000000  -0.000000   0.000000   0.000000   0.000000
     46       0.000000   0.000000  -0.000000   0.000000   0.000000   0.000000
     47       0.248362   0.000000  -0.000000   0.000000   0.000003   0.044724
     48       1.000000   0.000000  -0.000000   0.000000   0.044724   0.402773
     49       0.000000   1.000000   0.000000   0.000000   0.000000   0.000000
     50      -0.000000   0.000000   1.000000  -0.000000   0.040095   0.223814
     51       0.000000   0.000000  -0.000000   1.000000  -0.062443  -0.348558
     52       0.044724   0.000000   0.040095  -0.062443   1.000000   0.248362
     53       0.402773   0.000000   0.223814  -0.348558   0.248362   1.000000
     54       0.000000   0.243271   0.000000   0.000000   0.000000   0.000000
     55      -0.223814   0.000000   0.076616   0.259540   0.000000  -0.000000
     56       0.348558   0.000000   0.259540  -0.160924  -0.000000   0.000000
     57       0.486010   0.000000   0.193160   0.422348   0.005781   0.101891
     58       0.101894   0.000000   0.111303  -0.068444   0.061085   0.486008
     59       0.101891   0.000000   0.015924  -0.129686   0.061086   0.486010
                 54         55         56         57         58         59    
      0       0.000000  -0.002714   0.001341   0.004445   0.000056   0.000909
      1       0.000000  -0.066607   0.032926   0.084383   0.004732   0.028273
      2       0.020155   0.000000   0.000000   0.000000   0.000000   0.000000
      3       0.000000  -0.078557   0.048795   0.099133   0.007603   0.027062
      4       0.000000   0.048795  -0.003966   0.049593  -0.002529  -0.031790
      5       0.000000  -0.000010   0.000008   0.001149   0.000000   0.000003
      6       0.000000  -0.002919   0.002296   0.033093   0.000178   0.000866
      7       0.000634   0.000000   0.000000   0.000000   0.000000   0.000000
      8       0.000000  -0.004006   0.003649   0.048007   0.000318   0.000981
      9       0.000000   0.003649  -0.002236  -0.003725  -0.000182  -0.001304
     10       0.000000  -0.000000   0.000000   0.000005   0.000000   0.000000
     11       0.000000  -0.000069   0.000037   0.001035   0.000002   0.000039
     12       0.000010   0.000000   0.000000   0.000000   0.000000   0.000000
     13       0.000000  -0.000142   0.000081   0.001928   0.000004   0.000067
     14       0.000000   0.000081  -0.000033  -0.000099  -0.000002  -0.000057
     15       0.000000  -0.000000   0.000000   0.000000   0.000000   0.000000
     16       0.000000  -0.000031   0.000007   0.000086   0.000000   0.000049
     17       0.000004   0.000000   0.000000   0.000000   0.000000   0.000000
     18       0.000000  -0.000075   0.000017   0.000181   0.000001   0.000099
     19       0.000000   0.000017   0.000000   0.000038  -0.000000  -0.000046
     20       0.000000  -0.000000  -0.000000   0.000000   0.000000   0.000007
     21       0.000000  -0.000605  -0.000013   0.000192   0.000012   0.001372
     22       0.000088   0.000000   0.000000   0.000000   0.000000   0.000000
     23       0.000000  -0.001265  -0.000029   0.000348   0.000028   0.002449
     24       0.000000  -0.000029   0.000088   0.000188   0.000000  -0.000570
     25       0.000000  -0.000578  -0.000018   0.000069   0.000006   0.001328
     26       0.000000  -0.029312  -0.000919   0.005410   0.001166   0.036482
     27       0.006590   0.000000   0.000000   0.000000   0.000000   0.000000
     28       0.000000  -0.045568  -0.001635   0.007023   0.002158   0.049431
     29       0.000000  -0.001635   0.006539   0.005753   0.000049  -0.017938
     30       0.000000  -0.001243   0.001693   0.055469   0.000199   0.000265
     31       0.000000  -0.000004   0.000003   0.000207   0.000000   0.000002
     32       0.000000  -0.000123  -0.000026   0.000015   0.000003   0.000546
     33       0.000000  -0.051540  -0.022401   0.002796   0.004166   0.129838
     34       0.000000   0.000000   0.000000   0.000000   0.000000   0.000000
     35       0.000000  -0.000000   0.000000   0.000000   0.000000   0.000000
     36       0.000000   0.000000   0.000000   0.000000   0.000000   0.000000
     37       0.000000  -0.000000   0.000000   0.000001   0.000000   0.000000
     38       0.000000   0.000000   0.000000   0.000000  -0.000000  -0.000000
     39       0.000000   0.000000   0.000000   0.000000   0.000000   0.000000
     40       0.000000  -0.000000   0.000000   0.000000   0.000000   0.000000
     41       0.000000   0.000000   0.000000   0.000000   0.000000   0.000000
     42       0.000000  -0.000000   0.000000   0.000000   0.000000   0.000000
     43       0.000000   0.000000  -0.000000  -0.000000   0.000000  -0.000000
     44       0.000000  -0.000000   0.000000   0.000000   0.000000   0.000000
     45       0.000000   0.000000   0.000000   0.000000   0.000000   0.000000
     46       0.000000  -0.000000   0.000000   0.000000   0.000000   0.000000
     47       0.000000  -0.040095   0.062443   0.061086   0.005781   0.005781
     48       0.000000  -0.223814   0.348558   0.486010   0.101894   0.101891
     49       0.243271   0.000000   0.000000   0.000000   0.000000   0.000000
     50       0.000000   0.076616   0.259540   0.193160   0.111303   0.015924
     51       0.000000   0.259540  -0.160924   0.422348  -0.068444  -0.129686
     52       0.000000   0.000000  -0.000000   0.005781   0.061085   0.061086
     53       0.000000  -0.000000   0.000000   0.101891   0.486008   0.486010
     54       1.000000   0.000000   0.000000   0.000000   0.000000   0.000000
     55       0.000000   1.000000   0.000000  -0.015924   0.464422  -0.193160
     56       0.000000   0.000000   1.000000   0.129686  -0.000087  -0.422348
     57       0.000000  -0.015924   0.129686   1.000000   0.048313   0.014144
     58       0.000000   0.464422  -0.000087   0.048313   1.000000   0.152207
     59       0.000000  -0.193160  -0.422348   0.014144   0.152207   1.000000
-------------------
DFT GRID GENERATION
-------------------

General Integration Accuracy     IntAcc      ...  4.340
Radial Grid Type                 RadialGrid  ... Gauss-Chebyshev
Angular Grid (max. acc.)         AngularGrid ... Lebedev-110
Angular grid pruning method      GridPruning ... 3 (G Style)
Weight generation scheme         WeightScheme... Becke
Basis function cutoff            BFCut       ...    1.0000e-11
Integration weight cutoff        WCut        ...    1.0000e-14
Grids for H and He will be reduced by one unit

# of grid points (after initial pruning)     ...  24500 (   0.1 sec)
# of grid points (after weights+screening)   ...  22502 (   0.3 sec)
nearest neighbour list constructed           ...    0.0 sec
Grid point re-assignment to atoms done       ...    0.0 sec
Grid point division into batches done        ...    0.0 sec
Reduced shell lists constructed in    0.3 sec

Total number of grid points                  ...    22502
Total number of batches                      ...      362
Average number of points per batch           ...       62
Average number of grid points per atom       ...     1125
Average number of shells per batch           ...    27.33 (68.31%)
Average number of basis functions per batch  ...    44.65 (74.42%)
Average number of large shells per batch     ...    20.85 (76.29%)
Average number of large basis fcns per batch ...    34.99 (78.36%)
Maximum spatial batch extension              ...  18.95, 20.84, 44.34 au
Average spatial batch extension              ...   3.22,  3.90,  5.33 au

Time for grid setup =    0.776 sec

------------------------------
INITIAL GUESS: MODEL POTENTIAL
------------------------------
Loading Hartree-Fock densities                     ... done
Calculating cut-offs                               ... done
Setting up the integral package                    ... done
Initializing the effective Hamiltonian             ... done
Starting the Coulomb interaction                   ... done (   0.2 sec)
Reading the grid                                   ... done
Mapping shells                                     ... done
Starting the XC term evaluation                    ... done (   1.7 sec)
  promolecular density results
     # of electrons  =     69.993220687
     EX              =    -54.296898558
     EC              =     -2.299010595
     EX+EC           =    -56.595909153
done (   0.0 sec)
Diagonalizing the Hamiltonian                      ... done (   0.0 sec)
Back transforming the eigenvectors                 ... done (   0.0 sec)
Now organizing SCF variables                       ... done
The symmetry of the initial guess is 1-Ag
Irrep occupations for operator 0
    Ag -   15
    Bg -    3
    Au -    2
    Bu -   15
                      ------------------
                      INITIAL GUESS DONE (   1.9 sec)
                      ------------------
--------------
SCF ITERATIONS
--------------
ITER       Energy         Delta-E        Max-DP      RMS-DP      [F,P]     Damp
               ***  Starting incremental Fock matrix formation  ***
  0   -381.9867779369   0.000000000000 0.05707535  0.00425410  0.0807540 0.7000
  1   -382.0079987003  -0.021220763376 0.02895905  0.00220039  0.0411442 0.7000
                               ***Turning on DIIS***
  2   -382.0194217187  -0.011423018362 0.05111277  0.00390576  0.0218495 0.0000
  3   -382.0403768845  -0.020955165816 0.01981855  0.00147946  0.0118423 0.0000
                      *** Initiating the SOSCF procedure ***
                           *** Shutting down DIIS ***
                      *** Re-Reading the Fockian *** 
                      *** Removing any level shift *** 
ITER      Energy       Delta-E        Grad      Rot      Max-DP    RMS-DP
  4   -382.04168350  -0.0013066126  0.000446  0.000446  0.002708  0.000152
               *** Restarting incremental Fock matrix formation ***
  5   -382.04168455  -0.0000010551  0.000584  0.001782  0.004923  0.000211
  6   -382.04167321   0.0000113454  0.001090  0.001229  0.003399  0.000136
  7   -382.04169026  -0.0000170572  0.000075  0.000168  0.000432  0.000025
  8   -382.04169019   0.0000000752  0.000098  0.000099  0.000254  0.000014
  9   -382.04169037  -0.0000001848  0.000003  0.000005  0.000012  0.000001
                  ***Gradient check signals convergence***
              ***Rediagonalizing the Fockian in SOSCF/NRSCF***

               *****************************************************
               *                     SUCCESS                       *
               *           SCF CONVERGED AFTER  10 CYCLES          *
[...]
  2C   1pz        0.000021 -0.000017  0.000008 -0.000018  0.000019  0.000012
  2C   1px       -0.105439 -0.205476 -0.046654  0.503007 -0.284718  0.452882
  2C   1py        0.192699 -0.099591 -0.310088  0.092739  0.599813  0.242952
  3C   1s         0.061653  0.037642  0.067381  0.003926 -0.001898 -0.056812
  3C   2s        -0.366462 -0.235111 -0.449509 -0.016115  0.018965  0.392732
  3C   1pz        0.000011  0.000008  0.000014  0.000001 -0.000001 -0.000015
  3C   1px       -0.079416  0.017493 -0.613611  0.047274  0.097152 -0.053989
  3C   1py        0.159933  0.352511 -0.004327  0.564694  0.191277 -0.242476
  4C   1s        -0.058783 -0.112070 -0.012041 -0.096954 -0.002463 -0.037441
  4C   2s         0.355825  0.708121  0.078924  0.649601  0.021908  0.254581
  4C   1pz        0.000008  0.000011  0.000005  0.000016 -0.000008 -0.000006
  4C   1px       -0.099173  0.130437 -0.058935 -0.116186  0.305296  0.666100
  4C   1py        0.166989  0.070565  0.483015  0.004634  0.477178 -0.345967
  5C   1s         0.066570  0.097079 -0.049329 -0.035669  0.003342  0.087780
  5C   2s        -0.407980 -0.615484  0.319621  0.248728 -0.029031 -0.603200
  5C   1pz       -0.000010 -0.000006 -0.000010 -0.000005  0.000015 -0.000006
  5C   1px       -0.105439  0.205469  0.046652  0.503002  0.284717  0.452874
  5C   1py        0.192698  0.099588  0.310089  0.092739 -0.599811  0.242948
  6H   1s         0.082730 -0.219932  0.260601  0.307484  0.448212  0.076109
  7H   1s        -0.472573  0.330472  0.043871  0.209223 -0.519071 -0.259704
  8H   1s        -0.082733 -0.219933  0.260603 -0.307483  0.448210 -0.076106
  9H   1s         0.472556  0.330461  0.043878 -0.209224 -0.519067  0.259696
 10C   1s        -0.071016 -0.030933  0.074385 -0.026886 -0.051952  0.060792
 10C   2s         0.429489  0.215868 -0.486160  0.194385  0.354973 -0.417637
 10C   1pz       -0.000006  0.000003 -0.000000  0.000011  0.000003  0.000001
 10C   1px       -0.124626  0.064727  0.037073  0.007576 -0.127866  0.085368
 10C   1py       -0.034936 -0.046319  0.149777  0.267663  0.144314  0.057175
 11C   1s         0.113701 -0.064392 -0.018893  0.008752  0.042218 -0.007392
 11C   2s        -0.711551  0.413674  0.117103 -0.067962 -0.286882  0.046381
 11C   1pz        0.000030 -0.000024 -0.000003 -0.000005  0.000007  0.000003
 11C   1px       -0.000641 -0.350347 -0.192500 -0.477452 -0.240149  0.044202
 11C   1py       -0.148340  0.205553 -0.311494  0.074277  0.138658 -0.286857
 12H   1s        -0.296625 -0.075117  0.305464  0.147404 -0.095801  0.245534
 13H   1s         0.329579 -0.475628 -0.248161 -0.355797 -0.060701 -0.014326
 14H   1s         0.525558 -0.293496  0.234856  0.097267  0.131923  0.210999
 15C   1s         0.071016 -0.030934  0.074385  0.026887 -0.051952 -0.060792
 15C   2s        -0.429496  0.215879 -0.486148 -0.194402  0.354981  0.417636
 15C   1pz        0.000011 -0.000008  0.000020  0.000006 -0.000012 -0.000016
 15C   1px       -0.124630 -0.064727 -0.037062  0.007554  0.127882  0.085367
 15C   1py       -0.034941  0.046318 -0.149795  0.267664 -0.144303  0.057187
 16C   1s        -0.113701 -0.064392 -0.018893 -0.008752  0.042217  0.007393
 16C   2s         0.711554  0.413673  0.117105  0.067957 -0.286880 -0.046385
 16C   1pz        0.000020  0.000007 -0.000008  0.000011 -0.000011  0.000004
 16C   1px       -0.000637  0.350355  0.192481 -0.477456  0.240159  0.044220
 16C   1py       -0.148333 -0.205531  0.311507  0.074242 -0.138645 -0.286854
 17H   1s         0.296624 -0.075116  0.305464 -0.147410 -0.095800 -0.245536
 18H   1s        -0.329572 -0.475616 -0.248174  0.355791 -0.060694  0.014339
 19H   1s        -0.525545 -0.293502  0.234855 -0.097251  0.131898 -0.210995
                     54        55        56        57        58        59   
                   0.62843   0.64318   0.68626   0.72069   0.78294   0.79792
                   0.00000   0.00000   0.00000   0.00000   0.00000   0.00000
                  --------  --------  --------  --------  --------  --------
  0C   1s         0.090589  0.015130 -0.016065  0.020670 -0.004987 -0.044380
  0C   2s        -0.613521 -0.090883  0.102394 -0.145686  0.033002  0.330129
  0C   1pz       -0.000026 -0.000008  0.000010 -0.000007  0.000004  0.000006
  0C   1px       -0.012604 -0.381346  0.349936  0.050693  0.089799 -0.678378
  0C   1py        0.214708 -0.043124 -0.203796 -0.470372  0.697292 -0.037900
  1C   1s         0.008455  0.027202  0.019161 -0.046362  0.007056  0.051322
  1C   2s        -0.071480 -0.190845 -0.138119  0.335046 -0.048744 -0.371981
  1C   1pz       -0.000007  0.000011 -0.000008 -0.000009  0.000012  0.000020
  1C   1px        0.052167  0.422712  0.365070  0.085861 -0.478668  0.347125
  1C   1py       -0.266837  0.174068 -0.188595 -0.220591  0.338383  0.507710
  2C   1s         0.032841 -0.031828 -0.017507 -0.020124 -0.007048 -0.057215
  2C   2s        -0.216276  0.218619  0.126606  0.150519  0.047799  0.417444
  2C   1pz       -0.000008 -0.000002 -0.000009  0.000012  0.000010 -0.000003
  2C   1px        0.265163  0.330322  0.434959 -0.218851 -0.490974  0.282389
  2C   1py        0.326346  0.109330 -0.109792  0.002714 -0.346594 -0.568075
  3C   1s        -0.090589  0.015130 -0.016066 -0.020670 -0.004987  0.044380
  3C   2s         0.613521 -0.090878  0.102398  0.145683  0.032993 -0.330128
  3C   1pz       -0.000022  0.000003 -0.000005 -0.000007 -0.000002  0.000012
  3C   1px       -0.012601  0.381339 -0.349938  0.050686 -0.089805 -0.678380
  3C   1py        0.214721  0.043114  0.203809 -0.470367 -0.697287 -0.037888
  4C   1s        -0.008455  0.027202  0.019161  0.046362  0.007056 -0.051322
  4C   2s         0.071482 -0.190841 -0.138115 -0.335042 -0.048746  0.371974
  4C   1pz        0.000002  0.000003  0.000005 -0.000011 -0.000011  0.000002
  4C   1px        0.052167 -0.422709 -0.365064  0.085863  0.478664  0.347124
  4C   1py       -0.266834 -0.174067  0.188596 -0.220588 -0.338380  0.507706
  5C   1s        -0.032841 -0.031827 -0.017506  0.020124 -0.007048  0.057215
  5C   2s         0.216271  0.218612  0.126604 -0.150520  0.047802 -0.417438
  5C   1pz       -0.000008  0.000005 -0.000004  0.000005 -0.000013  0.000016
  5C   1px        0.265161 -0.330317 -0.434956 -0.218848  0.490967  0.282389
  5C   1py        0.326345 -0.109329  0.109791  0.002713  0.346593 -0.568073
  6H   1s         0.139948 -0.208833  0.041913 -0.018049 -0.006776 -0.269605
  7H   1s        -0.005525 -0.058990  0.191200 -0.105746  0.041782  0.275656
  8H   1s        -0.139952 -0.208829  0.041911  0.018051 -0.006774  0.269603
  9H   1s         0.005536 -0.058984  0.191190  0.105749  0.041779 -0.275651
 10C   1s        -0.022208 -0.040982 -0.041785 -0.061466 -0.027118  0.012522
 10C   2s         0.171656  0.284325  0.327550  0.465949  0.215704 -0.076640
 10C   1pz       -0.000013  0.000023 -0.000003  0.000017  0.000011 -0.000009
 10C   1px       -0.530523  0.277515 -0.627460 -0.333917 -0.229654 -0.359345
 10C   1py       -0.210583  0.506718  0.240935  0.688028  0.483567  0.055021
 11C   1s         0.018445  0.031197  0.049217  0.071094  0.041512  0.010131
 11C   2s        -0.130856 -0.226237 -0.367998 -0.536412 -0.324616 -0.085968
 11C   1pz        0.000004  0.000002  0.000006  0.000010  0.000006  0.000002
 11C   1px        0.337573 -0.558072 -0.083388 -0.452786 -0.262399  0.037831
 11C   1py        0.467348 -0.062373  0.607736  0.492046  0.313018  0.217295
 12H   1s        -0.347093  0.317224 -0.144875  0.173427  0.158145 -0.045590
 13H   1s         0.339786 -0.331871  0.115625 -0.093620 -0.047187  0.064206
 14H   1s        -0.359279  0.288693 -0.261330 -0.011039 -0.033910 -0.135745
 15C   1s         0.022208 -0.040982 -0.041785  0.061466 -0.027118 -0.012522
 15C   2s        -0.171646  0.284332  0.327543 -0.465938  0.215691  0.076643
 15C   1pz        0.000004 -0.000012 -0.000007  0.000014 -0.000005 -0.000009
 15C   1px       -0.530506 -0.277472  0.627484 -0.333982  0.229701 -0.359351
 15C   1py       -0.210618 -0.506729 -0.240893  0.687997 -0.483547  0.055000
 16C   1s        -0.018446  0.031196  0.049218 -0.071094  0.041512 -0.010131
 16C   2s         0.130876 -0.226218 -0.368012  0.536408 -0.324614  0.085979
 16C   1pz       -0.000011 -0.000019 -0.000004  0.000019 -0.000012 -0.000000
 16C   1px        0.337532  0.558062  0.083440 -0.452824  0.262423  0.037809
 16C   1py        0.467384  0.062425 -0.607736  0.492007 -0.312993  0.217302
 17H   1s         0.347081  0.317222 -0.144859 -0.173441  0.158156  0.045582
 18H   1s        -0.339804 -0.331872  0.115650  0.093598 -0.047173 -0.064214
 19H   1s         0.359274  0.288671 -0.261337  0.011064 -0.033920  0.135739



                    ********************************
                    * MULLIKEN POPULATION ANALYSIS *
                    ********************************

-----------------------
MULLIKEN ATOMIC CHARGES
-----------------------
   0 C :   -0.004513
   1 C :   -0.076176
   2 C :   -0.076920
   3 C :   -0.004511
   4 C :   -0.076177
   5 C :   -0.076923
   6 H :    0.077294
   7 H :    0.078909
   8 H :    0.077294
   9 H :    0.078910
  10 C :   -0.076288
  11 C :   -0.154051
  12 H :    0.076647
  13 H :    0.079010
  14 H :    0.076088
  15 C :   -0.076287
  16 C :   -0.154052
  17 H :    0.076648
  18 H :    0.079009
  19 H :    0.076089
Sum of atomic charges:    0.0000000

--------------------------------
MULLIKEN REDUCED ORBITAL CHARGES
--------------------------------
  0 C s       :     3.136836  s :     3.136836
      pz      :     0.993493  p :     2.867677
      px      :     0.928763
      py      :     0.945421
  1 C s       :     3.150994  s :     3.150994
      pz      :     1.001333  p :     2.925182
      px      :     0.957256
      py      :     0.966593
  2 C s       :     3.148655  s :     3.148655
      pz      :     1.001013  p :     2.928266
      px      :     0.954312
      py      :     0.972940
  3 C s       :     3.136835  s :     3.136835
      pz      :     0.993493  p :     2.867676
      px      :     0.928764
      py      :     0.945420
  4 C s       :     3.150991  s :     3.150991
      pz      :     1.001333  p :     2.925186
      px      :     0.957260
      py      :     0.966594
  5 C s       :     3.148653  s :     3.148653
      pz      :     1.001013  p :     2.928270
      px      :     0.954315
      py      :     0.972942
  6 H s       :     0.922706  s :     0.922706
  7 H s       :     0.921091  s :     0.921091
  8 H s       :     0.922706  s :     0.922706
  9 H s       :     0.921090  s :     0.921090
 10 C s       :     3.153700  s :     3.153700
      pz      :     0.998238  p :     2.922588
      px      :     0.935207
      py      :     0.989144
 11 C s       :     3.168741  s :     3.168741
      pz      :     1.005923  p :     2.985310
      px      :     0.993045
      py      :     0.986341
 12 H s       :     0.923353  s :     0.923353
 13 H s       :     0.920990  s :     0.920990
 14 H s       :     0.923912  s :     0.923912
 15 C s       :     3.153700  s :     3.153700
      pz      :     0.998238  p :     2.922588
      px      :     0.935213
      py      :     0.989137
 16 C s       :     3.168741  s :     3.168741
      pz      :     1.005923  p :     2.985310
      px      :     0.993049
      py      :     0.986338
 17 H s       :     0.923352  s :     0.923352
 18 H s       :     0.920991  s :     0.920991
 19 H s       :     0.923911  s :     0.923911


                     *******************************
                     * LOEWDIN POPULATION ANALYSIS *
                     *******************************

----------------------
LOEWDIN ATOMIC CHARGES
----------------------
   0 C :    0.003613
   1 C :   -0.043589
   2 C :   -0.044063
   3 C :    0.003613
   4 C :   -0.043589
   5 C :   -0.044063
   6 H :    0.041663
   7 H :    0.043459
   8 H :    0.041663
   9 H :    0.043459
  10 C :   -0.038924
  11 C :   -0.090998
  12 H :    0.041004
  13 H :    0.044810
  14 H :    0.043023
  15 C :   -0.038924
  16 C :   -0.090998
  17 H :    0.041004
  18 H :    0.044810
  19 H :    0.043023

-------------------------------
LOEWDIN REDUCED ORBITAL CHARGES
-------------------------------
  0 C s       :     3.032323  s :     3.032323
      pz      :     0.992572  p :     2.964064
      px      :     0.974537
      py      :     0.996956
  1 C s       :     3.031963  s :     3.031963
      pz      :     1.001665  p :     3.011626
      px      :     1.006037
      py      :     1.003924
  2 C s       :     3.029389  s :     3.029389
      pz      :     1.001413  p :     3.014673
      px      :     1.004684
      py      :     1.008576
  3 C s       :     3.032323  s :     3.032323
      pz      :     0.992572  p :     2.964064
      px      :     0.974537
      py      :     0.996956
  4 C s       :     3.031963  s :     3.031963
      pz      :     1.001665  p :     3.011626
      px      :     1.006037
      py      :     1.003924
  5 C s       :     3.029389  s :     3.029389
      pz      :     1.001413  p :     3.014673
      px      :     1.004684
      py      :     1.008576
  6 H s       :     0.958337  s :     0.958337
  7 H s       :     0.956541  s :     0.956541
  8 H s       :     0.958337  s :     0.958337
  9 H s       :     0.956541  s :     0.956541
 10 C s       :     3.033385  s :     3.033385
      pz      :     0.997607  p :     3.005538
      px      :     0.982280
      py      :     1.025651
 11 C s       :     3.032989  s :     3.032989
      pz      :     1.006742  p :     3.058009
      px      :     1.025042
      py      :     1.026225
 12 H s       :     0.958996  s :     0.958996
 13 H s       :     0.955190  s :     0.955190
 14 H s       :     0.956977  s :     0.956977
 15 C s       :     3.033385  s :     3.033385
      pz      :     0.997607  p :     3.005538
      px      :     0.982280
      py      :     1.025651
 16 C s       :     3.032989  s :     3.032989
      pz      :     1.006742  p :     3.058009
      px      :     1.025042
      py      :     1.026225
 17 H s       :     0.958996  s :     0.958996
 18 H s       :     0.955190  s :     0.955190
 19 H s       :     0.956977  s :     0.956977


                      *****************************
                      * MAYER POPULATION ANALYSIS *
                      *****************************

  NA   - Mulliken gross atomic population
  ZA   - Total nuclear charge
  QA   - Mulliken gross atomic charge
  VA   - Mayer's total valence
  BVA  - Mayer's bonded valence
  FA   - Mayer's free valence

  ATOM       NA         ZA         QA         VA         BVA        FA
  0 C      6.0045     6.0000    -0.0045     3.9731     3.9731    -0.0000
  1 C      6.0762     6.0000    -0.0762     3.9693     3.9693    -0.0000
  2 C      6.0769     6.0000    -0.0769     3.9701     3.9701     0.0000
  3 C      6.0045     6.0000    -0.0045     3.9731     3.9731    -0.0000
  4 C      6.0762     6.0000    -0.0762     3.9693     3.9693    -0.0000
  5 C      6.0769     6.0000    -0.0769     3.9701     3.9701     0.0000
  6 H      0.9227     1.0000     0.0773     0.9940     0.9940     0.0000
  7 H      0.9211     1.0000     0.0789     0.9938     0.9938    -0.0000
  8 H      0.9227     1.0000     0.0773     0.9940     0.9940     0.0000
  9 H      0.9211     1.0000     0.0789     0.9938     0.9938    -0.0000
 10 C      6.0763     6.0000    -0.0763     3.9682     3.9682     0.0000
 11 C      6.1541     6.0000    -0.1541     3.9649     3.9649     0.0000
 12 H      0.9234     1.0000     0.0766     0.9941     0.9941     0.0000
 13 H      0.9210     1.0000     0.0790     0.9938     0.9938    -0.0000
 14 H      0.9239     1.0000     0.0761     0.9942     0.9942    -0.0000
 15 C      6.0763     6.0000    -0.0763     3.9682     3.9682     0.0000
 16 C      6.1541     6.0000    -0.1541     3.9649     3.9649     0.0000
 17 H      0.9234     1.0000     0.0766     0.9941     0.9941     0.0000
 18 H      0.9210     1.0000     0.0790     0.9938     0.9938    -0.0000
 19 H      0.9239     1.0000     0.0761     0.9942     0.9942     0.0000

  Mayer bond orders larger than 0.1
B(  0-C ,  1-C ) :   1.3625 B(  0-C ,  5-C ) :   1.3654 B(  0-C , 15-C ) :   1.0665 
B(  1-C ,  2-C ) :   1.4653 B(  1-C ,  6-H ) :   0.9614 B(  2-C ,  3-C ) :   1.3654 
B(  2-C ,  5-C ) :   0.1019 B(  2-C ,  7-H ) :   0.9596 B(  3-C ,  4-C ) :   1.3625 
B(  3-C , 10-C ) :   1.0665 B(  4-C ,  5-C ) :   1.4653 B(  4-C ,  8-H ) :   0.9614 
B(  5-C ,  9-H ) :   0.9596 B( 10-C , 11-C ) :   1.9012 B( 10-C , 12-H ) :   0.9592 
B( 11-C , 13-H ) :   0.9693 B( 11-C , 14-H ) :   0.9665 B( 15-C , 16-C ) :   1.9012 
B( 15-C , 17-H ) :   0.9592 B( 16-C , 18-H ) :   0.9693 B( 16-C , 19-H ) :   0.9665 


-------
TIMINGS
-------

Total SCF time: 0 days 0 hours 0 min 9 sec 

Total time                  ....       9.485 sec
Sum of individual times     ....       9.405 sec  ( 99.2%)

Fock matrix formation       ....       5.549 sec  ( 58.5%)
  Coulomb formation         ....       3.085 sec  ( 55.6% of F)
  XC integration            ....       2.454 sec  ( 44.2% of F)
    Basis function eval.    ....       0.857 sec  ( 34.9% of XC)
    Density eval.           ....       0.260 sec  ( 10.6% of XC)
    XC-Functional eval.     ....       0.300 sec  ( 12.2% of XC)
    XC-Potential eval.      ....       0.215 sec  (  8.8% of XC)
Diagonalization             ....       0.006 sec  (  0.1%)
Density matrix formation    ....       0.001 sec  (  0.0%)
Population analysis         ....       0.016 sec  (  0.2%)
Initial guess               ....       0.005 sec  (  0.1%)
Orbital Transformation      ....       0.000 sec  (  0.0%)
Orbital Orthonormalization  ....       0.004 sec  (  0.0%)
DIIS solution               ....       0.001 sec  (  0.0%)
SOSCF solution              ....       0.003 sec  (  0.0%)
Grid generation             ....       3.824 sec  ( 40.3%)

-------------------------   ----------------
FINAL SINGLE POINT ENERGY     -382.050804967
-------------------------   ----------------

                                *** OPTIMIZATION RUN DONE ***

                            ***************************************
                            *     ORCA property calculations      *
                            ***************************************

                                    ---------------------
                                    Active property flags
                                    ---------------------
   (+) Dipole Moment


------------------------------------------------------------------------------
                       ORCA ELECTRIC PROPERTIES CALCULATION
------------------------------------------------------------------------------

Dipole Moment Calculation                       ... on
Quadrupole Moment Calculation                   ... off
Polarizability Calculation                      ... off
GBWName                                         ... dvb_gopt.gbw
Electron density file                           ... dvb_gopt.scfp.tmp

-------------
DIPOLE MOMENT
-------------
                                X             Y             Z
Electronic contribution:     -0.00019      -0.00040      -0.00013
Nuclear contribution   :      0.00020       0.00045       0.00017
                        -----------------------------------------
Total Dipole Moment    :      0.00001       0.00005       0.00004
                        -----------------------------------------
Magnitude (a.u.)       :      0.00006
Magnitude (Debye)      :      0.00016


Timings for individual modules:

Sum of individual times         ...     1013.899 sec (=  16.898 min)
GTO integral calculation        ...       19.919 sec (=   0.332 min)   2.0 %
SCF iterations                  ...      672.429 sec (=  11.207 min)  66.3 %
SCF Gradient evaluation         ...      308.327 sec (=   5.139 min)  30.4 %
Geometry relaxation             ...       13.224 sec (=   0.220 min)   1.3 %
                             ****ORCA TERMINATED NORMALLY****
TOTAL RUN TIME: 0 days 0 hours 17 minutes 4 seconds 726 msec
