
                                 *****************
                                 * O   R   C   A *
                                 *****************

                                            #,                                       
                                            ###                                      
                                            ####                                     
                                            #####                                    
                                            ######                                   
                                           ########,                                 
                                     ,,################,,,,,                         
                               ,,#################################,,                 
                          ,,##########################################,,             
                       ,#########################################, ''#####,          
                    ,#############################################,,   '####,        
                  ,##################################################,,,,####,       
                ,###########''''           ''''###############################       
              ,#####''   ,,,,##########,,,,          '''####'''          '####       
            ,##' ,,,,###########################,,,                        '##       
           ' ,,###''''                  '''############,,,                           
         ,,##''                                '''############,,,,        ,,,,,,###''
      ,#''                                            '''#######################'''  
     '                                                          ''''####''''         
             ,#######,   #######,   ,#######,      ##                                
            ,#'     '#,  ##    ##  ,#'     '#,    #''#        ######   ,####,        
            ##       ##  ##   ,#'  ##            #'  '#       #        #'  '#        
            ##       ##  #######   ##           ,######,      #####,   #    #        
            '#,     ,#'  ##    ##  '#,     ,#' ,#      #,         ##   #,  ,#        
             '#######'   ##     ##  '#######'  #'      '#     #####' # '####'        



                  #######################################################
                  #                        -***-                        #
                  #          Department of theory and spectroscopy      #
                  #    Directorship and core code : Frank Neese         #
                  #        Max Planck Institute fuer Kohlenforschung    #
                  #                Kaiser Wilhelm Platz 1               #
                  #                 D-45470 Muelheim/Ruhr               #
                  #                      Germany                        #
                  #                                                     #
                  #                  All rights reserved                #
                  #                        -***-                        #
                  #######################################################


                         Program Version 5.0.1 -  RELEASE  -


 With contributions from (in alphabetic order):
   Daniel Aravena         : Magnetic Suceptibility
   Michael Atanasov       : Ab Initio Ligand Field Theory (pilot matlab implementation)
   Alexander A. Auer      : GIAO ZORA, VPT2 properties, NMR spectrum
   Ute Becker             : Parallelization
   Giovanni Bistoni       : ED, misc. LED, open-shell LED, HFLD
   Martin Brehm           : Molecular dynamics
   Dmytro Bykov           : SCF Hessian
   Vijay G. Chilkuri      : MRCI spin determinant printing, contributions to CSF-ICE
   Dipayan Datta          : RHF DLPNO-CCSD density
   Achintya Kumar Dutta   : EOM-CC, STEOM-CC
   Dmitry Ganyushin       : Spin-Orbit,Spin-Spin,Magnetic field MRCI
   Miquel Garcia          : C-PCM and meta-GGA Hessian, CC/C-PCM, Gaussian charge scheme
   Yang Guo               : DLPNO-NEVPT2, F12-NEVPT2, CIM, IAO-localization
   Andreas Hansen         : Spin unrestricted coupled pair/coupled cluster methods
   Benjamin Helmich-Paris : MC-RPA, TRAH-SCF, COSX integrals
   Lee Huntington         : MR-EOM, pCC
   Robert Izsak           : Overlap fitted RIJCOSX, COSX-SCS-MP3, EOM
   Marcus Kettner         : VPT2
   Christian Kollmar      : KDIIS, OOCD, Brueckner-CCSD(T), CCSD density, CASPT2, CASPT2-K
   Simone Kossmann        : Meta GGA functionals, TD-DFT gradient, OOMP2, MP2 Hessian
   Martin Krupicka        : Initial AUTO-CI
   Lucas Lang             : DCDCAS
   Marvin Lechner         : AUTO-CI (C++ implementation), FIC-MRCC
   Dagmar Lenk            : GEPOL surface, SMD
   Dimitrios Liakos       : Extrapolation schemes; Compound Job, initial MDCI parallelization
   Dimitrios Manganas     : Further ROCIS development; embedding schemes
   Dimitrios Pantazis     : SARC Basis sets
   Anastasios Papadopoulos: AUTO-CI, single reference methods and gradients
   Taras Petrenko         : DFT Hessian,TD-DFT gradient, ASA, ECA, R-Raman, ABS, FL, XAS/XES, NRVS
   Peter Pinski           : DLPNO-MP2, DLPNO-MP2 Gradient
   Christoph Reimann      : Effective Core Potentials
   Marius Retegan         : Local ZFS, SOC
   Christoph Riplinger    : Optimizer, TS searches, QM/MM, DLPNO-CCSD(T), (RO)-DLPNO pert. Triples
   Tobias Risthaus        : Range-separated hybrids, TD-DFT gradient, RPA, STAB
   Michael Roemelt        : Original ROCIS implementation
   Masaaki Saitow         : Open-shell DLPNO-CCSD energy and density
   Barbara Sandhoefer     : DKH picture change effects
   Avijit Sen             : IP-ROCIS
   Kantharuban Sivalingam : CASSCF convergence, NEVPT2, FIC-MRCI
   Bernardo de Souza      : ESD, SOC TD-DFT
   Georgi Stoychev        : AutoAux, RI-MP2 NMR, DLPNO-MP2 response
   Willem Van den Heuvel  : Paramagnetic NMR
   Boris Wezisla          : Elementary symmetry handling
   Frank Wennmohs         : Technical directorship


 We gratefully acknowledge several colleagues who have allowed us to
 interface, adapt or use parts of their codes:
   Stefan Grimme, W. Hujo, H. Kruse, P. Pracht,  : VdW corrections, initial TS optimization,
                  C. Bannwarth, S. Ehlert          DFT functionals, gCP, sTDA/sTD-DF
   Ed Valeev, F. Pavosevic, A. Kumar             : LibInt (2-el integral package), F12 methods
   Garnet Chan, S. Sharma, J. Yang, R. Olivares  : DMRG
   Ulf Ekstrom                                   : XCFun DFT Library
   Mihaly Kallay                                 : mrcc  (arbitrary order and MRCC methods)
   Jiri Pittner, Ondrej Demel                    : Mk-CCSD
   Frank Weinhold                                : gennbo (NPA and NBO analysis)
   Christopher J. Cramer and Donald G. Truhlar   : smd solvation model
   Lars Goerigk                                  : TD-DFT with DH, B97 family of functionals
   V. Asgeirsson, H. Jonsson                     : NEB implementation
   FAccTs GmbH                                   : IRC, NEB, NEB-TS, DLPNO-Multilevel, CI-OPT
                                                   MM, QMMM, 2- and 3-layer-ONIOM, Crystal-QMMM,
                                                   LR-CPCM, SF, NACMEs, symmetry and pop. for TD-DFT,
                                                   nearIR, NL-DFT gradient (VV10), updates on ESD,
                                                   ML-optimized integration grids
   S Lehtola, MJT Oliveira, MAL Marques          : LibXC Library
   Liviu Ungur et al                             : ANISO software


 Your calculation uses the libint2 library for the computation of 2-el integrals
 For citations please refer to: http://libint.valeyev.net

 Your ORCA version has been built with support for libXC version: 5.1.0
 For citations please refer to: https://tddft.org/programs/libxc/

 This ORCA versions uses:
   CBLAS   interface :  Fast vector & matrix operations
   LAPACKE interface :  Fast linear algebra routines
   SCALAPACK package :  Parallel linear algebra routines
   Shared memory     :  Shared parallel matrices


================================================================================

----- Orbital basis set information -----
Your calculation utilizes the basis: STO-3G
   H-Ne       : W. J. Hehre, R. F. Stewart and J. A. Pople, J. Chem. Phys. 2657 (1969).
   Na-Ar      : W. J. Hehre, R. Ditchfield, R. F. Stewart and J. A. Pople, J. Chem. Phys. 2769 (1970).
   K,Ca,Ga-Kr : W. J. Pietro, B. A. Levy, W. J. Hehre and R. F. Stewart, J. Am. Chem. Soc. 19, 2225 (1980).
   Sc-Zn,Y-Cd : W. J. Pietro and W. J. Hehre, J. Comp. Chem. 4, 241 (1983).

----- AuxJ basis set information -----
Your calculation utilizes the auxiliary basis: def2/J
   F. Weigend, Phys. Chem. Chem. Phys. 8, 1057 (2006).

================================================================================
                                        WARNINGS
                       Please study these warnings very carefully!
================================================================================


WARNING: Geometry optimizations can change the point-group symmetry!


WARNING: Geometry Optimization
  ===> : Switching off AutoStart
         For restart on a previous wavefunction, please use MOREAD

INFO   : the flag for use of the SHARK integral package has been found!

================================================================================
                                       INPUT FILE
================================================================================
NAME = dvb_gopt.inp
|  1> ! rks b3lyp sto-3g usesym opt
|  2> 
|  3> %output
|  4>  printlevel normal
|  5>  print[ p_mos ] 1
|  6>  print[ p_overlap ] 1
|  7>  end 
|  8> 
|  9> * xyz 0 1
| 10>  C       -1.4152533224   0.2302217854   0.0000000000
| 11>  C        1.4152533224  -0.2302217854   0.0000000000
| 12>  C       -0.4951331558   1.3144608674   0.0000000000
| 13>  C        0.4951331558  -1.3144608674   0.0000000000
| 14>  C        0.8894090436   1.0909493743   0.0000000000
| 15>  C       -0.8894090436  -1.0909493743   0.0000000000
| 16>  H       -0.8795511985   2.3437343748   0.0000000000
| 17>  H        0.8795511985  -2.3437343748   0.0000000000
| 18>  H        1.5779041557   1.9450061275   0.0000000000
| 19>  H       -1.5779041557  -1.9450061275   0.0000000000
| 20>  C        2.8845844962  -0.5210893778   0.0000000000
| 21>  C       -2.8845844962   0.5210893778   0.0000000000
| 22>  H        3.1403356810  -1.5919605685   0.0000000000
| 23>  H       -3.1403356810   1.5919605685   0.0000000000
| 24>  C        3.8800428103   0.3822535424   0.0000000000
| 25>  C       -3.8800428103  -0.3822535424   0.0000000000
| 26>  H        3.6946765858   1.4624389570   0.0000000000
| 27>  H       -3.6946765858  -1.4624389570   0.0000000000
| 28>  H        4.9316453546   0.0711049543   0.0000000000
| 29>  H       -4.9316453546  -0.0711049543   0.0000000000
| 30> *
| 31> %pal
| 32>  nprocs 2
| 33> end
| 34> 
| 35>                          ****END OF INPUT****
================================================================================

------------------------------------------------------------------------------
                            SYMMETRY HANDLING SETUP
------------------------------------------------------------------------------

------------------
SYMMETRY DETECTION
------------------
The point group will now be determined using a tolerance of 1.0000e-04.
Splitting atom subsets according to nuclear charge, mass and basis set.
Splitting atom subsets according to distance from the molecule's center.
Identifying relative distance patterns of the atoms.
Splitting atom subsets according to atoms' relative distance patterns.
Bring atoms of each subset into input order.
Results of testing for linearity or planarity:

Atom             Transformed Cartesians (x, y, z; au)             Radial dev. (au)     Planar dev. (au)
  0       0.000000000000   -0.511938052722   -2.660794794321       0.511938052722       0.000000000000
  1       0.000000000000    0.511938052722    2.660794794321       0.511938052722       0.000000000000
  2       0.000000000000   -2.509900362521   -0.863703274814       2.509900362521       0.000000000000
  3       0.000000000000    2.509900362521    0.863703274814       2.509900362521       0.000000000000
  4       0.000000000000   -2.012309923945    1.739445390516       2.012309923945       0.000000000000
  5       0.000000000000    2.012309923945   -1.739445390516       2.012309923945       0.000000000000
  6       0.000000000000   -4.475069895381   -1.533801041215       4.475069895381       0.000000000000
  7       0.000000000000    4.475069895381    1.533801041215       4.475069895381       0.000000000000
  8       0.000000000000   -3.588083602122    3.086476979552       3.588083602122       0.000000000000
  9       0.000000000000    3.588083602122   -3.086476979552       3.588083602122       0.000000000000
 10       0.000000000000    1.141377102253    5.420437233942       1.141377102253       0.000000000000
 11       0.000000000000   -1.141377102253   -5.420437233942       1.141377102253       0.000000000000
 12       0.000000000000    3.178116129463    5.845225782252       3.178116129463       0.000000000000
 13       0.000000000000   -3.178116129463   -5.845225782252       3.178116129463       0.000000000000
 14       0.000000000000   -0.510780674345    7.349988049556       0.510780674345       0.000000000000
 15       0.000000000000    0.510780674345   -7.349988049556       0.510780674345       0.000000000000
 16       0.000000000000   -2.561281163356    7.058659744946       2.561281163356       0.000000000000
 17       0.000000000000    2.561281163356   -7.058659744946       2.561281163356       0.000000000000
 18       0.000000000000    0.134222066090    9.319461225590       0.134222066090       0.000000000000
 19       0.000000000000   -0.134222066090   -9.319461225590       0.134222066090       0.000000000000
Largest deviations:                                                4.475069895381       0.000000000000
Threshold:                                                         0.000100000000       0.000100000000

The molecule is planar.

Results of testing the inversion operation:

Atom indices             Transformed Cartesians (x, y, z; au)                  Symmetry-perfected Cartesians (x, y, z; au)          Deviations (au)
  0 -->   1       0.000000000000   -0.511938052722   -2.660794794321       0.000000000000   -0.511938052722   -2.660794794321       0.000000000000
  1 -->   0       0.000000000000    0.511938052722    2.660794794321       0.000000000000    0.511938052722    2.660794794321       0.000000000000
  2 -->   3       0.000000000000   -2.509900362521   -0.863703274814       0.000000000000   -2.509900362521   -0.863703274814       0.000000000000
  3 -->   2       0.000000000000    2.509900362521    0.863703274814       0.000000000000    2.509900362521    0.863703274814       0.000000000000
  4 -->   5       0.000000000000   -2.012309923945    1.739445390516       0.000000000000   -2.012309923945    1.739445390516       0.000000000000
  5 -->   4       0.000000000000    2.012309923945   -1.739445390516       0.000000000000    2.012309923945   -1.739445390516       0.000000000000
  6 -->   7       0.000000000000   -4.475069895381   -1.533801041215       0.000000000000   -4.475069895381   -1.533801041215       0.000000000000
  7 -->   6       0.000000000000    4.475069895381    1.533801041215       0.000000000000    4.475069895381    1.533801041215       0.000000000000
  8 -->   9       0.000000000000   -3.588083602122    3.086476979552       0.000000000000   -3.588083602122    3.086476979552       0.000000000000
  9 -->   8       0.000000000000    3.588083602122   -3.086476979552       0.000000000000    3.588083602122   -3.086476979552       0.000000000000
 10 -->  11       0.000000000000    1.141377102253    5.420437233942       0.000000000000    1.141377102253    5.420437233942       0.000000000000
 11 -->  10       0.000000000000   -1.141377102253   -5.420437233942       0.000000000000   -1.141377102253   -5.420437233942       0.000000000000
 12 -->  13       0.000000000000    3.178116129463    5.845225782252       0.000000000000    3.178116129463    5.845225782252       0.000000000000
 13 -->  12       0.000000000000   -3.178116129463   -5.845225782252       0.000000000000   -3.178116129463   -5.845225782252       0.000000000000
 14 -->  15       0.000000000000   -0.510780674345    7.349988049556       0.000000000000   -0.510780674345    7.349988049556       0.000000000000
 15 -->  14       0.000000000000    0.510780674345   -7.349988049556       0.000000000000    0.510780674345   -7.349988049556       0.000000000000
 16 -->  17       0.000000000000   -2.561281163356    7.058659744946       0.000000000000   -2.561281163356    7.058659744946       0.000000000000
 17 -->  16       0.000000000000    2.561281163356   -7.058659744946       0.000000000000    2.561281163356   -7.058659744946       0.000000000000
 18 -->  19       0.000000000000    0.134222066090    9.319461225590       0.000000000000    0.134222066090    9.319461225590       0.000000000000
 19 -->  18       0.000000000000   -0.134222066090   -9.319461225590       0.000000000000   -0.134222066090   -9.319461225590       0.000000000000
Largest deviation:                                                                                                                  0.000000000000
Threshold:                                                                                                                          0.000100000000

The molecule has a center of inversion.
Analyzing the first atom subset for its symmetry.
The selected subset contains 2 atoms.
The subset is a centered atom pair.

List of group operations for C2h:

           /   1.00000000000000e+00   0.00000000000000e+00   0.00000000000000e+00 \
op[  0] = |    0.00000000000000e+00   1.00000000000000e+00   0.00000000000000e+00  | = \hat{E}
           \   0.00000000000000e+00   0.00000000000000e+00   1.00000000000000e+00 /

           /  -1.00000000000000e+00  -0.00000000000000e+00   0.00000000000000e+00 \
op[  1] = |    0.00000000000000e+00  -1.00000000000000e+00   0.00000000000000e+00  | = \hat{C}_{2}
           \   0.00000000000000e+00   0.00000000000000e+00   1.00000000000000e+00 /

           /   1.00000000000000e+00   0.00000000000000e+00   0.00000000000000e+00 \
op[  2] = |    0.00000000000000e+00   1.00000000000000e+00   0.00000000000000e+00  | = \hat{m}
           \   0.00000000000000e+00   0.00000000000000e+00  -1.00000000000000e+00 /

           /  -1.00000000000000e+00   0.00000000000000e+00   0.00000000000000e+00 \
op[  3] = |    0.00000000000000e+00  -1.00000000000000e+00   0.00000000000000e+00  | = \hat{i}
           \   0.00000000000000e+00   0.00000000000000e+00  -1.00000000000000e+00 /

Testing point group C2h.

Transformation matrix (with columns representing input coordinates):

 /   1.00000000000000e+00   0.00000000000000e+00   0.00000000000000e+00 \
|    0.00000000000000e+00   1.00000000000000e+00   0.00000000000000e+00  |
 \   0.00000000000000e+00   0.00000000000000e+00   1.00000000000000e+00 /

Atom transfer table:

SymOp    0    1    2    3
Atom     0    1    0    1
Atom     1    0    1    0
Atom     2    3    2    3
Atom     3    2    3    2
Atom     4    5    4    5
Atom     5    4    5    4
Atom     6    7    6    7
Atom     7    6    7    6
Atom     8    9    8    9
Atom     9    8    9    8
Atom    10   11   10   11
Atom    11   10   11   10
Atom    12   13   12   13
Atom    13   12   13   12
Atom    14   15   14   15
Atom    15   14   15   14
Atom    16   17   16   17
Atom    17   16   17   16
Atom    18   19   18   19
Atom    19   18   19   18

Success!
This point group has been found:    C2h
Largest non-degenerate subgroup:    C2h

Effect of cleaning the coordinates of non-dummy atoms:

Atom             Transformed Cartesians (x, y, z; au)                  Symmetry-perfected Cartesians (x, y, z; au)          Deviations (au)
  0      -2.674441189458    0.435056124468    0.000000000000      -2.674441189458    0.435056124468    0.000000000000       0.000000000000
  1       2.674441189458   -0.435056124468    0.000000000000       2.674441189458   -0.435056124468    0.000000000000       0.000000000000
  2      -0.935666064286    2.483971053143    0.000000000000      -0.935666064286    2.483971053143    0.000000000000       0.000000000000
  3       0.935666064286   -2.483971053143    0.000000000000       0.935666064286   -2.483971053143    0.000000000000       0.000000000000
  4       1.680739513437    2.061595543400    0.000000000000       1.680739513437    2.061595543400    0.000000000000       0.000000000000
  5      -1.680739513437   -2.061595543400    0.000000000000      -1.680739513437   -2.061595543400    0.000000000000       0.000000000000
  6      -1.662110885927    4.429016099029    0.000000000000      -1.662110885927    4.429016099029    0.000000000000       0.000000000000
  7       1.662110885927   -4.429016099029    0.000000000000       1.662110885927   -4.429016099029    0.000000000000       0.000000000000
  8       2.981806719849    3.675528909774    0.000000000000       2.981806719849    3.675528909774    0.000000000000       0.000000000000
  9      -2.981806719849   -3.675528909774    0.000000000000      -2.981806719849   -3.675528909774    0.000000000000       0.000000000000
 10       5.451074707973   -0.984716215337    0.000000000000       5.451074707973   -0.984716215337    0.000000000000       0.000000000000
 11      -5.451074707973    0.984716215337    0.000000000000      -5.451074707973    0.984716215337    0.000000000000       0.000000000000
 12       5.934374405671   -3.008369490467    0.000000000000       5.934374405671   -3.008369490467    0.000000000000       0.000000000000
 13      -5.934374405671    3.008369490467    0.000000000000      -5.934374405671    3.008369490467    0.000000000000       0.000000000000
 14       7.332218299357    0.722354508857    0.000000000000       7.332218299357    0.722354508857    0.000000000000       0.000000000000
 15      -7.332218299357   -0.722354508857    0.000000000000      -7.332218299357   -0.722354508857    0.000000000000       0.000000000000
 16       6.981926900573    2.763609116307    0.000000000000       6.981926900573    2.763609116307    0.000000000000       0.000000000000
 17      -6.981926900573   -2.763609116307    0.000000000000      -6.981926900573   -2.763609116307    0.000000000000       0.000000000000
 18       9.319459109819    0.134368890392    0.000000000000       9.319459109819    0.134368890392    0.000000000000       0.000000000000
 19      -9.319459109819   -0.134368890392    0.000000000000      -9.319459109819   -0.134368890392    0.000000000000       0.000000000000
Largest deviation:                                                                                                          0.000000000000
Threshold:                                                                                                                  0.000100000000


Symmetry-perfected Cartesians (point group C2h):

Atom          Symmetry-perfected Cartesians (x, y, z; au)
  0      -2.674441189458    0.435056124468    0.000000000000
  1       2.674441189458   -0.435056124468    0.000000000000
  2      -0.935666064286    2.483971053143    0.000000000000
  3       0.935666064286   -2.483971053143    0.000000000000
  4       1.680739513437    2.061595543400    0.000000000000
  5      -1.680739513437   -2.061595543400    0.000000000000
  6      -1.662110885927    4.429016099029    0.000000000000
  7       1.662110885927   -4.429016099029    0.000000000000
  8       2.981806719849    3.675528909774    0.000000000000
  9      -2.981806719849   -3.675528909774    0.000000000000
 10       5.451074707973   -0.984716215337    0.000000000000
 11      -5.451074707973    0.984716215337    0.000000000000
 12       5.934374405671   -3.008369490467    0.000000000000
 13      -5.934374405671    3.008369490467    0.000000000000
 14       7.332218299357    0.722354508857    0.000000000000
 15      -7.332218299357   -0.722354508857    0.000000000000
 16       6.981926900573    2.763609116307    0.000000000000
 17      -6.981926900573   -2.763609116307    0.000000000000
 18       9.319459109819    0.134368890392    0.000000000000
 19      -9.319459109819   -0.134368890392    0.000000000000

New point group recognition code took 0.015 seconds.

----------------------
ASYMMETRIC UNIT IN C2h
----------------------
Warning (ORCA_SYM): Asymmetric unit not constructed so far!

-----------------------------------------------
SYMMETRY-PERFECTED CARTESIAN COORDINATES (A.U.)
-----------------------------------------------
Warning (ORCA_SYM): Coordinates were not cleaned so far!

------------------
SYMMETRY REDUCTION
------------------
ORCA supports only abelian point groups.
It is now checked, if the determined point group is supported:
Point Group ( C2h   ) is          ... supported

(Re)building abelian point group:
Creating Character Table          ... done
Making direct product table       ... done
Constructing symmetry operations  ... done
Creating atom transfer table      ... done
Creating asymmetric unit          ... done

----------------------------
CHARACTER TABLE OF GROUP C2h
----------------------------
GAMMA  O1   O2   O3   O4  
 Ag :  1.0  1.0  1.0  1.0 
 Bg :  1.0 -1.0  1.0 -1.0 
 Au :  1.0  1.0 -1.0 -1.0 
 Bu :  1.0 -1.0 -1.0  1.0 

---------------------------------
DIRECT PRODUCT TABLE OF GROUP C2h
---------------------------------
   **   Ag  Bg  Au  Bu  

 Ag     Ag  Bg  Au  Bu  
 Bg     Bg  Ag  Bu  Au  
 Au     Au  Bu  Ag  Bg  
 Bu     Bu  Au  Bg  Ag  

-------------------
ATOM TRANSFER TABLE
-------------------
       O01 O02 O03 O04 
   0 :   0   1   1   0 
   1 :   1   0   0   1 
   2 :   2   3   3   2 
   3 :   3   2   2   3 
   4 :   4   5   5   4 
   5 :   5   4   4   5 
   6 :   6   7   7   6 
   7 :   7   6   6   7 
   8 :   8   9   9   8 
   9 :   9   8   8   9 
  10 :  10  11  11  10 
  11 :  11  10  10  11 
  12 :  12  13  13  12 
  13 :  13  12  12  13 
  14 :  14  15  15  14 
  15 :  15  14  14  15 
  16 :  16  17  17  16 
  17 :  17  16  16  17 
  18 :  18  19  19  18 
  19 :  19  18  18  19 

----------------------
ASYMMETRIC UNIT IN C2h
----------------------
  #  AT     MASS              COORDS (A.U.)             BAS
   0 C   12.0110  -2.67444119   0.43505612   0.00000000   0
   2 C   12.0110  -0.93566606   2.48397105   0.00000000   0
   4 C   12.0110   1.68073951   2.06159554   0.00000000   0
   6 H    1.0080  -1.66211089   4.42901610   0.00000000   0
   8 H    1.0080   2.98180672   3.67552891   0.00000000   0
  10 C   12.0110   5.45107471  -0.98471622   0.00000000   0
  12 H    1.0080   5.93437441  -3.00836949   0.00000000   0
  14 C   12.0110   7.33221830   0.72235451   0.00000000   0
  16 H    1.0080   6.98192690   2.76360912   0.00000000   0
  18 H    1.0080   9.31945911   0.13436889   0.00000000   0

----------------------
SYMMETRY ADAPTED BASIS
----------------------
The coefficients for the symmetry adapted linear combinations (SALCS)
of basis functions will now be computed:
Number of basis functions         ...    60
Preparing memory                  ... done
Constructing Gamma(red)           ... done

Gamma(red) = {   60,    0,    0,   40}

Reducing Gamma(red)               ... done

Gamma(red) = 25 Ag + 5 Bg + 5 Au + 25 Bu 

Constructing SALCs                ... done
Checking SALC integrity           ... nothing suspicious
Normalizing SALCs                 ... done

Storing the symmetry object:
Symmetry file                     ... dvb_gopt.sym.tmp
Writing symmetry information      ... done

                       *****************************
                       * Geometry Optimization Run *
                       *****************************

Geometry optimization settings:
Update method            Update   .... BFGS
Choice of coordinates    CoordSys .... Z-matrix Internals
Initial Hessian          InHess   .... Almoef's Model

Convergence Tolerances:
Energy Change            TolE     ....  5.0000e-06 Eh
Max. Gradient            TolMAXG  ....  3.0000e-04 Eh/bohr
RMS Gradient             TolRMSG  ....  1.0000e-04 Eh/bohr
Max. Displacement        TolMAXD  ....  4.0000e-03 bohr
RMS Displacement         TolRMSD  ....  2.0000e-03 bohr
Strict Convergence                ....  False
------------------------------------------------------------------------------
                        ORCA OPTIMIZATION COORDINATE SETUP
------------------------------------------------------------------------------

The optimization will be done in new redundant internal coordinates
Making redundant internal coordinates   ...  (new redundants) done
Evaluating the initial hessian          ...  (Almloef) done
Evaluating the coordinates              ...  done
Calculating the B-matrix                .... done
Calculating the G-matrix                .... done
Diagonalizing the G-matrix              .... done
Small eigenvalue found = 1.562e-02
The first mode is                       ....   36
The number of degrees of freedom        ....   54

    -----------------------------------------------------------------
                    Redundant Internal Coordinates


    -----------------------------------------------------------------
         Definition                    Initial Value    Approx d2E/dq
    -----------------------------------------------------------------
      1. B(C   2,C   0)                  1.4220         0.555421   
      2. B(C   3,C   1)                  1.4220         0.555421   
      3. B(C   4,C   2)                  1.4025         0.596826   
      4. B(C   4,C   1)                  1.4220         0.555557   
      5. B(C   5,C   0)                  1.4220         0.555557   
      6. B(C   5,C   3)                  1.4025         0.596826   
      7. B(H   6,C   2)                  1.0987         0.348750   
      8. B(H   7,C   3)                  1.0987         0.348750   
      9. B(H   8,C   4)                  1.0970         0.350941   
     10. B(H   9,C   5)                  1.0970         0.350941   
     11. B(C  10,C   1)                  1.4978         0.420416   
     12. B(C  11,C   0)                  1.4978         0.420416   
     13. B(H  12,C  10)                  1.1010         0.345854   
     14. B(H  13,C  11)                  1.1010         0.345854   
     15. B(C  14,C  10)                  1.3442         0.739188   
     16. B(C  15,C  11)                  1.3442         0.739188   
     17. B(H  16,C  14)                  1.0960         0.352282   
     18. B(H  17,C  15)                  1.0960         0.352282   
     19. B(H  18,C  14)                  1.0967         0.351386   
     20. B(H  19,C  15)                  1.0967         0.351386   
     21. A(C   2,C   0,C   5)          117.9778         0.417324   
     22. A(C   2,C   0,C  11)          119.1216         0.397251   
     23. A(C   5,C   0,C  11)          122.9007         0.397268   
     24. A(C   3,C   1,C  10)          119.1216         0.397251   
     25. A(C   4,C   1,C  10)          122.9007         0.397268   
     26. A(C   3,C   1,C   4)          117.9778         0.417324   
     27. A(C   0,C   2,C   4)          121.1487         0.422692   
     28. A(C   0,C   2,H   6)          119.2011         0.344561   
     29. A(C   4,C   2,H   6)          119.6502         0.348754   
     30. A(C   1,C   3,C   5)          121.1487         0.422692   
     31. A(C   5,C   3,H   7)          119.6502         0.348754   
     32. A(C   1,C   3,H   7)          119.2011         0.344561   
     33. A(C   1,C   4,C   2)          120.8736         0.422710   
     34. A(C   1,C   4,H   8)          119.4229         0.344937   
     35. A(C   2,C   4,H   8)          119.7036         0.349122   
     36. A(C   3,C   5,H   9)          119.7036         0.349122   
     37. A(C   0,C   5,C   3)          120.8736         0.422710   
     38. A(C   0,C   5,H   9)          119.4229         0.344937   
     39. A(H  12,C  10,C  14)          118.7905         0.361126   
     40. A(C   1,C  10,C  14)          126.5799         0.417852   
     41. A(C   1,C  10,H  12)          114.6295         0.328497   
     42. A(H  13,C  11,C  15)          118.7905         0.361126   
     43. A(C   0,C  11,C  15)          126.5799         0.417852   
     44. A(C   0,C  11,H  13)          114.6295         0.328497   
     45. A(H  16,C  14,H  18)          116.2199         0.288729   
     46. A(C  10,C  14,H  18)          121.2949         0.362105   
     47. A(C  10,C  14,H  16)          122.4852         0.362263   
     48. A(H  17,C  15,H  19)          116.2199         0.288729   
     49. A(C  11,C  15,H  19)          121.2949         0.362105   
     50. A(C  11,C  15,H  17)          122.4852         0.362263   
     51. D(H   6,C   2,C   0,C  11)      0.0000         0.021118   
     52. D(H   6,C   2,C   0,C   5)    180.0000         0.021118   
     53. D(C   4,C   2,C   0,C   5)      0.0000         0.021118   
     54. D(C   4,C   2,C   0,C  11)    180.0000         0.021118   
     55. D(C   5,C   3,C   1,C  10)    180.0000         0.021118   
     56. D(H   7,C   3,C   1,C  10)      0.0000         0.021118   
     57. D(C   5,C   3,C   1,C   4)      0.0000         0.021118   
     58. D(H   7,C   3,C   1,C   4)    180.0000         0.021118   
     59. D(C   1,C   4,C   2,H   6)    180.0000         0.024542   
     60. D(C   1,C   4,C   2,C   0)      0.0000         0.024542   
     61. D(H   8,C   4,C   1,C  10)      0.0000         0.021129   
     62. D(H   8,C   4,C   1,C   3)    180.0000         0.021129   
     63. D(C   2,C   4,C   1,C  10)    180.0000         0.021129   
     64. D(H   8,C   4,C   2,C   0)    180.0000         0.024542   
     65. D(C   2,C   4,C   1,C   3)      0.0000         0.021129   
     66. D(H   8,C   4,C   2,H   6)      0.0000         0.024542   
     67. D(H   9,C   5,C   3,H   7)      0.0000         0.024542   
     68. D(C   0,C   5,C   3,H   7)    180.0000         0.024542   
     69. D(C   0,C   5,C   3,C   1)      0.0000         0.024542   
     70. D(H   9,C   5,C   0,C  11)      0.0000         0.021129   
     71. D(H   9,C   5,C   0,C   2)    180.0000         0.021129   
     72. D(H   9,C   5,C   3,C   1)    180.0000         0.024542   
     73. D(C   3,C   5,C   0,C  11)    180.0000         0.021129   
     74. D(C   3,C   5,C   0,C   2)      0.0000         0.021129   
     75. D(C  14,C  10,C   1,C   4)      0.0000         0.012096   
     76. D(C  14,C  10,C   1,C   3)    180.0000         0.012096   
     77. D(H  12,C  10,C   1,C   4)    180.0000         0.012096   
     78. D(H  12,C  10,C   1,C   3)      0.0000         0.012096   
     79. D(C  15,C  11,C   0,C   2)    180.0000         0.012096   
     80. D(H  13,C  11,C   0,C   5)    180.0000         0.012096   
     81. D(H  13,C  11,C   0,C   2)      0.0000         0.012096   
     82. D(C  15,C  11,C   0,C   5)      0.0000         0.012096   
     83. D(H  18,C  14,C  10,H  12)      0.0000         0.038859   
     84. D(H  18,C  14,C  10,C   1)    180.0000         0.038859   
     85. D(H  16,C  14,C  10,H  12)    180.0000         0.038859   
     86. D(H  16,C  14,C  10,C   1)      0.0000         0.038859   
     87. D(H  19,C  15,C  11,H  13)      0.0000         0.038859   
     88. D(H  19,C  15,C  11,C   0)    180.0000         0.038859   
     89. D(H  17,C  15,C  11,H  13)    180.0000         0.038859   
     90. D(H  17,C  15,C  11,C   0)      0.0000         0.038859   
    -----------------------------------------------------------------

Number of atoms                         .... 20
Number of degrees of freedom            .... 90

         *************************************************************
         *                GEOMETRY OPTIMIZATION CYCLE   1            *
         *************************************************************

------------------------------------------------------------------------------
                            SYMMETRY HANDLING SETUP
------------------------------------------------------------------------------

------------------
SYMMETRY DETECTION
------------------
The point group will now be determined using a tolerance of 1.0000e-04.
Splitting atom subsets according to nuclear charge, mass and basis set.
Splitting atom subsets according to distance from the molecule's center.
Identifying relative distance patterns of the atoms.
Splitting atom subsets according to atoms' relative distance patterns.
Bring atoms of each subset into input order.
Results of testing for linearity or planarity:

Atom             Transformed Cartesians (x, y, z; au)             Radial dev. (au)     Planar dev. (au)
  0       0.000000000000   -0.511938052722   -2.660794794321       0.511938052722       0.000000000000
  1       0.000000000000    0.511938052722    2.660794794321       0.511938052722       0.000000000000
  2       0.000000000000   -2.509900362521   -0.863703274814       2.509900362521       0.000000000000
  3       0.000000000000    2.509900362521    0.863703274814       2.509900362521       0.000000000000
  4       0.000000000000   -2.012309923945    1.739445390516       2.012309923945       0.000000000000
  5       0.000000000000    2.012309923945   -1.739445390516       2.012309923945       0.000000000000
  6       0.000000000000   -4.475069895381   -1.533801041215       4.475069895381       0.000000000000
  7       0.000000000000    4.475069895381    1.533801041215       4.475069895381       0.000000000000
  8       0.000000000000   -3.588083602122    3.086476979552       3.588083602122       0.000000000000
  9       0.000000000000    3.588083602122   -3.086476979552       3.588083602122       0.000000000000
 10       0.000000000000    1.141377102253    5.420437233942       1.141377102253       0.000000000000
 11       0.000000000000   -1.141377102253   -5.420437233942       1.141377102253       0.000000000000
 12       0.000000000000    3.178116129463    5.845225782252       3.178116129463       0.000000000000
 13       0.000000000000   -3.178116129463   -5.845225782252       3.178116129463       0.000000000000
 14       0.000000000000   -0.510780674345    7.349988049556       0.510780674345       0.000000000000
 15       0.000000000000    0.510780674345   -7.349988049556       0.510780674345       0.000000000000
 16       0.000000000000   -2.561281163356    7.058659744946       2.561281163356       0.000000000000
 17       0.000000000000    2.561281163356   -7.058659744946       2.561281163356       0.000000000000
 18       0.000000000000    0.134222066090    9.319461225590       0.134222066090       0.000000000000
 19       0.000000000000   -0.134222066090   -9.319461225590       0.134222066090       0.000000000000
Largest deviations:                                                4.475069895381       0.000000000000
Threshold:                                                         0.000100000000       0.000100000000

The molecule is planar.

Results of testing the inversion operation:

Atom indices             Transformed Cartesians (x, y, z; au)                  Symmetry-perfected Cartesians (x, y, z; au)          Deviations (au)
  0 -->   1       0.000000000000   -0.511938052722   -2.660794794321       0.000000000000   -0.511938052722   -2.660794794321       0.000000000000
  1 -->   0       0.000000000000    0.511938052722    2.660794794321       0.000000000000    0.511938052722    2.660794794321       0.000000000000
  2 -->   3       0.000000000000   -2.509900362521   -0.863703274814       0.000000000000   -2.509900362521   -0.863703274814       0.000000000000
  3 -->   2       0.000000000000    2.509900362521    0.863703274814       0.000000000000    2.509900362521    0.863703274814       0.000000000000
  4 -->   5       0.000000000000   -2.012309923945    1.739445390516       0.000000000000   -2.012309923945    1.739445390516       0.000000000000
  5 -->   4       0.000000000000    2.012309923945   -1.739445390516       0.000000000000    2.012309923945   -1.739445390516       0.000000000000
  6 -->   7       0.000000000000   -4.475069895381   -1.533801041215       0.000000000000   -4.475069895381   -1.533801041215       0.000000000000
  7 -->   6       0.000000000000    4.475069895381    1.533801041215       0.000000000000    4.475069895381    1.533801041215       0.000000000000
  8 -->   9       0.000000000000   -3.588083602122    3.086476979552       0.000000000000   -3.588083602122    3.086476979552       0.000000000000
  9 -->   8       0.000000000000    3.588083602122   -3.086476979552       0.000000000000    3.588083602122   -3.086476979552       0.000000000000
 10 -->  11       0.000000000000    1.141377102253    5.420437233942       0.000000000000    1.141377102253    5.420437233942       0.000000000000
 11 -->  10       0.000000000000   -1.141377102253   -5.420437233942       0.000000000000   -1.141377102253   -5.420437233942       0.000000000000
 12 -->  13       0.000000000000    3.178116129463    5.845225782252       0.000000000000    3.178116129463    5.845225782252       0.000000000000
 13 -->  12       0.000000000000   -3.178116129463   -5.845225782252       0.000000000000   -3.178116129463   -5.845225782252       0.000000000000
 14 -->  15       0.000000000000   -0.510780674345    7.349988049556       0.000000000000   -0.510780674345    7.349988049556       0.000000000000
 15 -->  14       0.000000000000    0.510780674345   -7.349988049556       0.000000000000    0.510780674345   -7.349988049556       0.000000000000
 16 -->  17       0.000000000000   -2.561281163356    7.058659744946       0.000000000000   -2.561281163356    7.058659744946       0.000000000000
 17 -->  16       0.000000000000    2.561281163356   -7.058659744946       0.000000000000    2.561281163356   -7.058659744946       0.000000000000
 18 -->  19       0.000000000000    0.134222066090    9.319461225590       0.000000000000    0.134222066090    9.319461225590       0.000000000000
 19 -->  18       0.000000000000   -0.134222066090   -9.319461225590       0.000000000000   -0.134222066090   -9.319461225590       0.000000000000
Largest deviation:                                                                                                                  0.000000000000
Threshold:                                                                                                                          0.000100000000

The molecule has a center of inversion.
Analyzing the first atom subset for its symmetry.
The selected subset contains 2 atoms.
The subset is a centered atom pair.

List of group operations for C2h:

           /   1.00000000000000e+00   0.00000000000000e+00   0.00000000000000e+00 \
op[  0] = |    0.00000000000000e+00   1.00000000000000e+00   0.00000000000000e+00  | = \hat{E}
           \   0.00000000000000e+00   0.00000000000000e+00   1.00000000000000e+00 /

           /  -1.00000000000000e+00  -0.00000000000000e+00   0.00000000000000e+00 \
op[  1] = |    0.00000000000000e+00  -1.00000000000000e+00   0.00000000000000e+00  | = \hat{C}_{2}
           \   0.00000000000000e+00   0.00000000000000e+00   1.00000000000000e+00 /

           /   1.00000000000000e+00   0.00000000000000e+00   0.00000000000000e+00 \
op[  2] = |    0.00000000000000e+00   1.00000000000000e+00   0.00000000000000e+00  | = \hat{m}
           \   0.00000000000000e+00   0.00000000000000e+00  -1.00000000000000e+00 /

           /  -1.00000000000000e+00   0.00000000000000e+00   0.00000000000000e+00 \
op[  3] = |    0.00000000000000e+00  -1.00000000000000e+00   0.00000000000000e+00  | = \hat{i}
           \   0.00000000000000e+00   0.00000000000000e+00  -1.00000000000000e+00 /

Testing point group C2h.

Transformation matrix (with columns representing input coordinates):

 /   1.00000000000000e+00   0.00000000000000e+00   0.00000000000000e+00 \
|    0.00000000000000e+00   1.00000000000000e+00   0.00000000000000e+00  |
 \   0.00000000000000e+00   0.00000000000000e+00   1.00000000000000e+00 /

Atom transfer table:

SymOp    0    1    2    3
Atom     0    1    0    1
Atom     1    0    1    0
Atom     2    3    2    3
Atom     3    2    3    2
Atom     4    5    4    5
Atom     5    4    5    4
Atom     6    7    6    7
Atom     7    6    7    6
Atom     8    9    8    9
Atom     9    8    9    8
Atom    10   11   10   11
Atom    11   10   11   10
Atom    12   13   12   13
Atom    13   12   13   12
Atom    14   15   14   15
Atom    15   14   15   14
Atom    16   17   16   17
Atom    17   16   17   16
Atom    18   19   18   19
Atom    19   18   19   18

Success!
This point group has been found:    C2h
Largest non-degenerate subgroup:    C2h

Effect of cleaning the coordinates of non-dummy atoms:

Atom             Transformed Cartesians (x, y, z; au)                  Symmetry-perfected Cartesians (x, y, z; au)          Deviations (au)
  0      -2.674441189458    0.435056124468    0.000000000000      -2.674441189458    0.435056124468    0.000000000000       0.000000000000
  1       2.674441189458   -0.435056124468    0.000000000000       2.674441189458   -0.435056124468    0.000000000000       0.000000000000
  2      -0.935666064286    2.483971053143    0.000000000000      -0.935666064286    2.483971053143    0.000000000000       0.000000000000
  3       0.935666064286   -2.483971053143    0.000000000000       0.935666064286   -2.483971053143    0.000000000000       0.000000000000
  4       1.680739513437    2.061595543400    0.000000000000       1.680739513437    2.061595543400    0.000000000000       0.000000000000
  5      -1.680739513437   -2.061595543400    0.000000000000      -1.680739513437   -2.061595543400    0.000000000000       0.000000000000
  6      -1.662110885927    4.429016099029    0.000000000000      -1.662110885927    4.429016099029    0.000000000000       0.000000000000
  7       1.662110885927   -4.429016099029    0.000000000000       1.662110885927   -4.429016099029    0.000000000000       0.000000000000
  8       2.981806719849    3.675528909774    0.000000000000       2.981806719849    3.675528909774    0.000000000000       0.000000000000
  9      -2.981806719849   -3.675528909774    0.000000000000      -2.981806719849   -3.675528909774    0.000000000000       0.000000000000
 10       5.451074707973   -0.984716215337    0.000000000000       5.451074707973   -0.984716215337    0.000000000000       0.000000000000
 11      -5.451074707973    0.984716215337    0.000000000000      -5.451074707973    0.984716215337    0.000000000000       0.000000000000
 12       5.934374405671   -3.008369490467    0.000000000000       5.934374405671   -3.008369490467    0.000000000000       0.000000000000
 13      -5.934374405671    3.008369490467    0.000000000000      -5.934374405671    3.008369490467    0.000000000000       0.000000000000
 14       7.332218299357    0.722354508857    0.000000000000       7.332218299357    0.722354508857    0.000000000000       0.000000000000
 15      -7.332218299357   -0.722354508857    0.000000000000      -7.332218299357   -0.722354508857    0.000000000000       0.000000000000
 16       6.981926900573    2.763609116307    0.000000000000       6.981926900573    2.763609116307    0.000000000000       0.000000000000
 17      -6.981926900573   -2.763609116307    0.000000000000      -6.981926900573   -2.763609116307    0.000000000000       0.000000000000
 18       9.319459109819    0.134368890392    0.000000000000       9.319459109819    0.134368890392    0.000000000000       0.000000000000
 19      -9.319459109819   -0.134368890392    0.000000000000      -9.319459109819   -0.134368890392    0.000000000000       0.000000000000
Largest deviation:                                                                                                          0.000000000000
Threshold:                                                                                                                  0.000100000000


Symmetry-perfected Cartesians (point group C2h):

Atom          Symmetry-perfected Cartesians (x, y, z; au)
  0      -2.674441189458    0.435056124468    0.000000000000
  1       2.674441189458   -0.435056124468    0.000000000000
  2      -0.935666064286    2.483971053143    0.000000000000
  3       0.935666064286   -2.483971053143    0.000000000000
  4       1.680739513437    2.061595543400    0.000000000000
  5      -1.680739513437   -2.061595543400    0.000000000000
  6      -1.662110885927    4.429016099029    0.000000000000
  7       1.662110885927   -4.429016099029    0.000000000000
  8       2.981806719849    3.675528909774    0.000000000000
  9      -2.981806719849   -3.675528909774    0.000000000000
 10       5.451074707973   -0.984716215337    0.000000000000
 11      -5.451074707973    0.984716215337    0.000000000000
 12       5.934374405671   -3.008369490467    0.000000000000
 13      -5.934374405671    3.008369490467    0.000000000000
 14       7.332218299357    0.722354508857    0.000000000000
 15      -7.332218299357   -0.722354508857    0.000000000000
 16       6.981926900573    2.763609116307    0.000000000000
 17      -6.981926900573   -2.763609116307    0.000000000000
 18       9.319459109819    0.134368890392    0.000000000000
 19      -9.319459109819   -0.134368890392    0.000000000000

New point group recognition code took 0.010 seconds.

----------------------
ASYMMETRIC UNIT IN C2h
----------------------
Warning (ORCA_SYM): Asymmetric unit not constructed so far!

-----------------------------------------------
SYMMETRY-PERFECTED CARTESIAN COORDINATES (A.U.)
-----------------------------------------------
Warning (ORCA_SYM): Coordinates were not cleaned so far!

------------------
SYMMETRY REDUCTION
------------------
ORCA supports only abelian point groups.
It is now checked, if the determined point group is supported:
Point Group ( C2h   ) is          ... supported

(Re)building abelian point group:
Creating Character Table          ... done
Making direct product table       ... done
Constructing symmetry operations  ... done
Creating atom transfer table      ... done
Creating asymmetric unit          ... done

----------------------------
CHARACTER TABLE OF GROUP C2h
----------------------------
GAMMA  O1   O2   O3   O4  
 Ag :  1.0  1.0  1.0  1.0 
 Bg :  1.0 -1.0  1.0 -1.0 
 Au :  1.0  1.0 -1.0 -1.0 
 Bu :  1.0 -1.0 -1.0  1.0 

---------------------------------
DIRECT PRODUCT TABLE OF GROUP C2h
---------------------------------
   **   Ag  Bg  Au  Bu  

 Ag     Ag  Bg  Au  Bu  
 Bg     Bg  Ag  Bu  Au  
 Au     Au  Bu  Ag  Bg  
 Bu     Bu  Au  Bg  Ag  

-------------------
ATOM TRANSFER TABLE
-------------------
       O01 O02 O03 O04 
   0 :   0   1   1   0 
   1 :   1   0   0   1 
   2 :   2   3   3   2 
   3 :   3   2   2   3 
   4 :   4   5   5   4 
   5 :   5   4   4   5 
   6 :   6   7   7   6 
   7 :   7   6   6   7 
   8 :   8   9   9   8 
   9 :   9   8   8   9 
  10 :  10  11  11  10 
  11 :  11  10  10  11 
  12 :  12  13  13  12 
  13 :  13  12  12  13 
  14 :  14  15  15  14 
  15 :  15  14  14  15 
  16 :  16  17  17  16 
  17 :  17  16  16  17 
  18 :  18  19  19  18 
  19 :  19  18  18  19 

----------------------
ASYMMETRIC UNIT IN C2h
----------------------
  #  AT     MASS              COORDS (A.U.)             BAS
   0 C   12.0110  -2.67444119   0.43505612   0.00000000   0
   2 C   12.0110  -0.93566606   2.48397105   0.00000000   0
   4 C   12.0110   1.68073951   2.06159554   0.00000000   0
   6 H    1.0080  -1.66211089   4.42901610   0.00000000   0
   8 H    1.0080   2.98180672   3.67552891   0.00000000   0
  10 C   12.0110   5.45107471  -0.98471622   0.00000000   0
  12 H    1.0080   5.93437441  -3.00836949   0.00000000   0
  14 C   12.0110   7.33221830   0.72235451   0.00000000   0
  16 H    1.0080   6.98192690   2.76360912   0.00000000   0
  18 H    1.0080   9.31945911   0.13436889   0.00000000   0

----------------------
SYMMETRY ADAPTED BASIS
----------------------
The coefficients for the symmetry adapted linear combinations (SALCS)
of basis functions will now be computed:
Number of basis functions         ...    60
Preparing memory                  ... done
Constructing Gamma(red)           ... done

Gamma(red) = {   60,    0,    0,   40}

Reducing Gamma(red)               ... done

Gamma(red) = 25 Ag + 5 Bg + 5 Au + 25 Bu 

Constructing SALCs                ... done
Checking SALC integrity           ... nothing suspicious
Normalizing SALCs                 ... done

Storing the symmetry object:
Symmetry file                     ... dvb_gopt.sym.tmp
Writing symmetry information      ... done
---------------------------------
CARTESIAN COORDINATES (ANGSTROEM)
---------------------------------
  C     -1.415253    0.230222    0.000000
  C      1.415253   -0.230222    0.000000
  C     -0.495133    1.314461    0.000000
  C      0.495133   -1.314461    0.000000
  C      0.889409    1.090949    0.000000
  C     -0.889409   -1.090949    0.000000
  H     -0.879551    2.343734    0.000000
  H      0.879551   -2.343734    0.000000
  H      1.577904    1.945006    0.000000
  H     -1.577904   -1.945006    0.000000
  C      2.884584   -0.521089    0.000000
  C     -2.884584    0.521089    0.000000
  H      3.140336   -1.591961    0.000000
  H     -3.140336    1.591961    0.000000
  C      3.880043    0.382254    0.000000
  C     -3.880043   -0.382254    0.000000
  H      3.694677    1.462439    0.000000
  H     -3.694677   -1.462439    0.000000
  H      4.931645    0.071105    0.000000
  H     -4.931645   -0.071105    0.000000

----------------------------
CARTESIAN COORDINATES (A.U.)
----------------------------
  NO LB      ZA    FRAG     MASS         X           Y           Z
   0 C     6.0000    0    12.011   -2.674441    0.435056    0.000000
   1 C     6.0000    0    12.011    2.674441   -0.435056    0.000000
   2 C     6.0000    0    12.011   -0.935666    2.483971    0.000000
   3 C     6.0000    0    12.011    0.935666   -2.483971    0.000000
   4 C     6.0000    0    12.011    1.680740    2.061596    0.000000
   5 C     6.0000    0    12.011   -1.680740   -2.061596    0.000000
   6 H     1.0000    0     1.008   -1.662111    4.429016    0.000000
   7 H     1.0000    0     1.008    1.662111   -4.429016    0.000000
   8 H     1.0000    0     1.008    2.981807    3.675529    0.000000
   9 H     1.0000    0     1.008   -2.981807   -3.675529    0.000000
  10 C     6.0000    0    12.011    5.451075   -0.984716    0.000000
  11 C     6.0000    0    12.011   -5.451075    0.984716    0.000000
  12 H     1.0000    0     1.008    5.934374   -3.008369    0.000000
  13 H     1.0000    0     1.008   -5.934374    3.008369    0.000000
  14 C     6.0000    0    12.011    7.332218    0.722355    0.000000
  15 C     6.0000    0    12.011   -7.332218   -0.722355    0.000000
  16 H     1.0000    0     1.008    6.981927    2.763609    0.000000
  17 H     1.0000    0     1.008   -6.981927   -2.763609    0.000000
  18 H     1.0000    0     1.008    9.319459    0.134369    0.000000
  19 H     1.0000    0     1.008   -9.319459   -0.134369    0.000000

--------------------------------
INTERNAL COORDINATES (ANGSTROEM)
--------------------------------
 C      0   0   0     0.000000000000     0.00000000     0.00000000
 C      1   0   0     2.867712703209     0.00000000     0.00000000
 C      1   2   0     1.422039207589    58.92046780     0.00000000
 C      2   1   3     1.422039207589    58.92046780   180.00000085
 C      3   1   2     1.402467286416   121.14866524     0.00000000
 C      4   2   1     1.402467286416   121.14866524     0.00000000
 H      3   1   2     1.098717973180   119.20109491   180.00000000
 H      4   2   1     1.098717973180   119.20109491   180.00000000
 H      5   3   1     1.097013426113   119.70357006   180.00000000
 H      6   4   2     1.097013426113   119.70357006   180.00000000
 C      2   1   3     1.497844469432   178.04202002   180.00000000
 C      1   2   3     1.497844469432   178.04202002     0.00000000
 H     11   2   5     1.100987636442   114.62953459   180.00000000
 H     12   1   6     1.100987636442   114.62953459   180.00000000
 C     11   2   5     1.344234237991   126.57992264     0.00000000
 C     12   1   6     1.344234237991   126.57992264     0.00000000
 H     15  11   2     1.095974984705   122.48517186     0.00000000
 H     16  12   1     1.095974984705   122.48517186     0.00000000
 H     15  11   2     1.096668297643   121.29492471   180.00000085
 H     16  12   1     1.096668297643   121.29492471   180.00000085

---------------------------
INTERNAL COORDINATES (A.U.)
---------------------------
 C      0   0   0     0.000000000000     0.00000000     0.00000000
 C      1   0   0     5.419191639833     0.00000000     0.00000000
 C      1   2   0     2.687264654042    58.92046780     0.00000000
 C      2   1   3     2.687264654042    58.92046780   180.00000085
 C      3   1   2     2.650279083110   121.14866524     0.00000000
 C      4   2   1     2.650279083110   121.14866524     0.00000000
 H      3   1   2     2.076276067727   119.20109491   180.00000000
 H      4   2   1     2.076276067727   119.20109491   180.00000000
 H      5   3   1     2.073054940588   119.70357006   180.00000000
 H      6   4   2     2.073054940588   119.70357006   180.00000000
 C      2   1   3     2.830515838436   178.04202002   180.00000000
 C      1   2   3     2.830515838436   178.04202002     0.00000000
 H     11   2   5     2.080565109708   114.62953459   180.00000000
 H     12   1   6     2.080565109708   114.62953459   180.00000000
 C     11   2   5     2.540234569643   126.57992264     0.00000000
 C     12   1   6     2.540234569643   126.57992264     0.00000000
 H     15  11   2     2.071092570722   122.48517186     0.00000000
 H     16  12   1     2.071092570722   122.48517186     0.00000000
 H     15  11   2     2.072402742299   121.29492471   180.00000085
 H     16  12   1     2.072402742299   121.29492471   180.00000085

---------------------
BASIS SET INFORMATION
---------------------
There are 2 groups of distinct atoms

 Group   1 Type C   : 6s3p contracted to 2s1p pattern {33/3}
 Group   2 Type H   : 3s contracted to 1s pattern {3}

Atom   0C    basis set group =>   1
Atom   1C    basis set group =>   1
Atom   2C    basis set group =>   1
Atom   3C    basis set group =>   1
Atom   4C    basis set group =>   1
Atom   5C    basis set group =>   1
Atom   6H    basis set group =>   2
Atom   7H    basis set group =>   2
Atom   8H    basis set group =>   2
Atom   9H    basis set group =>   2
Atom  10C    basis set group =>   1
Atom  11C    basis set group =>   1
Atom  12H    basis set group =>   2
Atom  13H    basis set group =>   2
Atom  14C    basis set group =>   1
Atom  15C    basis set group =>   1
Atom  16H    basis set group =>   2
Atom  17H    basis set group =>   2
Atom  18H    basis set group =>   2
Atom  19H    basis set group =>   2
---------------------------------
AUXILIARY/J BASIS SET INFORMATION
---------------------------------
There are 2 groups of distinct atoms

 Group   1 Type C   : 12s5p4d2f1g contracted to 6s4p3d1f1g pattern {711111/2111/211/2/1}
 Group   2 Type H   : 5s2p1d contracted to 3s1p1d pattern {311/2/1}

Atom   0C    basis set group =>   1
Atom   1C    basis set group =>   1
Atom   2C    basis set group =>   1
Atom   3C    basis set group =>   1
Atom   4C    basis set group =>   1
Atom   5C    basis set group =>   1
Atom   6H    basis set group =>   2
Atom   7H    basis set group =>   2
Atom   8H    basis set group =>   2
Atom   9H    basis set group =>   2
Atom  10C    basis set group =>   1
Atom  11C    basis set group =>   1
Atom  12H    basis set group =>   2
Atom  13H    basis set group =>   2
Atom  14C    basis set group =>   1
Atom  15C    basis set group =>   1
Atom  16H    basis set group =>   2
Atom  17H    basis set group =>   2
Atom  18H    basis set group =>   2
Atom  19H    basis set group =>   2


           ************************************************************
           *        Program running with 2 parallel MPI-processes     *
           *              working on a common directory               *
           ************************************************************
------------------------------------------------------------------------------
                           ORCA GTO INTEGRAL CALCULATION
                           -- RI-GTO INTEGRALS CHOSEN --
------------------------------------------------------------------------------
------------------------------------------------------------------------------
                   ___                                                        
                  /   \      - P O W E R E D   B Y -                         
                 /     \                                                     
                 |  |  |   _    _      __       _____    __    __             
                 |  |  |  | |  | |    /  \     |  _  \  |  |  /  |          
                  \  \/   | |  | |   /    \    | | | |  |  | /  /          
                 / \  \   | |__| |  /  /\  \   | |_| |  |  |/  /          
                |  |  |   |  __  | /  /__\  \  |    /   |      \           
                |  |  |   | |  | | |   __   |  |    \   |  |\   \          
                \     /   | |  | | |  |  |  |  | |\  \  |  | \   \       
                 \___/    |_|  |_| |__|  |__|  |_| \__\ |__|  \__/        
                                                                              
                      - O R C A' S   B I G   F R I E N D -                    
                                      &                                       
                       - I N T E G R A L  F E E D E R -                       
                                                                              
 v1 FN, 2020, v2 2021                                                         
------------------------------------------------------------------------------


Reading SHARK input file dvb_gopt.SHARKINP.tmp ... ok
----------------------
SHARK INTEGRAL PACKAGE
----------------------

Number of atoms                             ...     20
Number of basis functions                   ...     60
Number of shells                            ...     40
Maximum angular momentum                    ...      1
Integral batch strategy                     ... SHARK/LIBINT Hybrid
RI-J (if used) integral strategy            ... SPLIT-RIJ (Revised 2003 algorithm where possible)
Printlevel                                  ...      2
Contraction scheme used                     ... SEGMENTED contraction
Coulomb Range Separation                    ... NOT USED
Exchange Range Separation                   ... NOT USED
Finite Nucleus Model                        ... NOT USED
Auxiliary Coulomb fitting basis             ... AVAILABLE
   # of basis functions in Aux-J            ...    600
   # of shells in Aux-J                     ...    200
   Maximum angular momentum in Aux-J        ...      4
Auxiliary J/K fitting basis                 ... NOT available
Auxiliary Correlation fitting basis         ... NOT available
Auxiliary 'external' fitting basis          ... NOT available
Integral threshold                          ...     2.500000e-11
Primitive cut-off                           ...     2.500000e-12
Primitive pair pre-selection threshold      ...     2.500000e-12

Calculating pre-screening integrals         ... done (  0.0 sec) Dimension = 40
Organizing shell pair data                  ... done (  0.0 sec)
Shell pair information
Total number of shell pairs                 ...       820
Shell pairs after pre-screening             ...       756
Total number of primitive shell pairs       ...      7380
Primitive shell pairs kept                  ...      4872
          la=0 lb=0:    409 shell pairs
          la=1 lb=0:    292 shell pairs
          la=1 lb=1:     55 shell pairs

Calculating one electron integrals          ... done (  0.0 sec)
Calculating RI/J V-Matrix + Cholesky decomp.... done (  0.1 sec)
Calculating Nuclear repulsion               ... done (  0.0 sec) ENN=    445.936977869861 Eh

SHARK setup successfully completed in   0.2 seconds

Maximum memory used throughout the entire GTOINT-calculation: 7.1 MB


           ************************************************************
           *        Program running with 2 parallel MPI-processes     *
           *              working on a common directory               *
           ************************************************************
-------------------------------------------------------------------------------
                                 ORCA SCF
-------------------------------------------------------------------------------

------------
SCF SETTINGS
------------
Hamiltonian:
 Density Functional     Method          .... DFT(GTOs)
 Exchange Functional    Exchange        .... B88
   X-Alpha parameter    XAlpha          ....  0.666667
   Becke's b parameter  XBeta           ....  0.004200
 Correlation Functional Correlation     .... LYP
 LDA part of GGA corr.  LDAOpt          .... VWN-5
 Gradients option       PostSCFGGA      .... off
 Hybrid DFT is turned on
   Fraction HF Exchange ScalHFX         ....  0.200000
   Scaling of DF-GGA-X  ScalDFX         ....  0.720000
   Scaling of DF-GGA-C  ScalDFC         ....  0.810000
   Scaling of DF-LDA-C  ScalLDAC        ....  1.000000
   Perturbative correction              ....  0.000000
   Density functional embedding theory  .... OFF
   NL short-range parameter             ....  4.800000
 RI-approximation to the Coulomb term is turned on
   Number of AuxJ basis functions       .... 600
   RIJ-COSX (HFX calculated with COS-X)).... on


General Settings:
 Integral files         IntName         .... dvb_gopt
 Hartree-Fock type      HFTyp           .... RHF
 Total Charge           Charge          ....    0
 Multiplicity           Mult            ....    1
 Number of Electrons    NEL             ....   70
 Basis Dimension        Dim             ....   60
 Nuclear Repulsion      ENuc            ....    445.9369778699 Eh

 Symmetry handling      UseSym         .... ON
 Point group                           .... C2h
 Used point group                      .... C2h
 Number of irreps                      .... 4
   Irrep   Ag has   25 symmetry adapted basis functions (ofs=   0)
   Irrep   Bg has    5 symmetry adapted basis functions (ofs=  25)
   Irrep   Au has    5 symmetry adapted basis functions (ofs=  30)
   Irrep   Bu has   25 symmetry adapted basis functions (ofs=  35)

Convergence Acceleration:
 DIIS                   CNVDIIS         .... on
   Start iteration      DIISMaxIt       ....    12
   Startup error        DIISStart       ....  0.200000
   # of expansion vecs  DIISMaxEq       ....     5
   Bias factor          DIISBfac        ....   1.050
   Max. coefficient     DIISMaxC        ....  10.000
 Trust-Rad. Augm. Hess. CNVTRAH         .... auto
   Auto Start mean grad. ratio tolernc. ....  1.125000
   Auto Start start iteration           ....    20
   Auto Start num. interpolation iter.  ....    10
   Max. Number of Micro iterations      ....    16
   Max. Number of Macro iterations      .... Maxiter - #DIIS iter
   Number of Davidson start vectors     ....     2
   Converg. threshold I  (grad. norm)   ....   1.000e-05
   Converg. threshold II (energy diff.) ....   1.000e-08
   Grad. Scal. Fac. for Micro threshold ....   0.100
   Minimum threshold for Micro iter.    ....   0.010
   NR start threshold (gradient norm)   ....   0.001
   Initial trust radius                 ....   0.400
   Minimum AH scaling param. (alpha)    ....   1.000
   Maximum AH scaling param. (alpha)    .... 1000.000
   Orbital update algorithm             .... Taylor
   White noise on init. David. guess    .... on
   Maximum white noise                  ....   0.010
   Quad. conv. algorithm                .... NR
 SOSCF                  CNVSOSCF        .... on
   Start iteration      SOSCFMaxIt      ....   150
   Startup grad/error   SOSCFStart      ....  0.003300
 Level Shifting         CNVShift        .... on
   Level shift para.    LevelShift      ....    0.2500
   Turn off err/grad.   ShiftErr        ....    0.0010
 Zerner damping         CNVZerner       .... off
 Static damping         CNVDamp         .... on
   Fraction old density DampFac         ....    0.7000
   Max. Damping (<1)    DampMax         ....    0.9800
   Min. Damping (>=0)   DampMin         ....    0.0000
   Turn off err/grad.   DampErr         ....    0.1000
 Fernandez-Rico         CNVRico         .... off

SCF Procedure:
 Maximum # iterations   MaxIter         ....   125
 SCF integral mode      SCFMode         .... Direct
   Integral package                     .... SHARK and LIBINT hybrid scheme
 Reset frequency        DirectResetFreq ....    20
 Integral Threshold     Thresh          ....  2.500e-11 Eh
 Primitive CutOff       TCut            ....  2.500e-12 Eh

Convergence Tolerance:
 Convergence Check Mode ConvCheckMode   .... Total+1el-Energy
 Convergence forced     ConvForced      .... 0
 Energy Change          TolE            ....  1.000e-08 Eh
 1-El. energy change                    ....  1.000e-05 Eh
 Orbital Gradient       TolG            ....  1.000e-05
 Orbital Rotation angle TolX            ....  1.000e-05
 DIIS Error             TolErr          ....  5.000e-07


Diagonalization of the overlap matrix:
Smallest eigenvalue                        ... 1.815e-01
Time for diagonalization                   ...    0.001 sec
Threshold for overlap eigenvalues          ... 1.000e-08
Number of eigenvalues below threshold      ... 0
Time for construction of square roots      ...    0.002 sec
Producing symmetrization matrix            ... done (   0.001 sec)
Total time needed                          ...    0.006 sec

----------------------
SHARK INTEGRAL PACKAGE
----------------------

Number of atoms                             ...     20
Number of basis functions                   ...     60
Number of shells                            ...     40
Maximum angular momentum                    ...      1
Integral batch strategy                     ... SHARK/LIBINT Hybrid
RI-J (if used) integral strategy            ... SPLIT-RIJ (Revised 2003 algorithm where possible)
Printlevel                                  ...      2
Contraction scheme used                     ... SEGMENTED contraction
Coulomb Range Separation                    ... NOT USED
Exchange Range Separation                   ... NOT USED
Finite Nucleus Model                        ... NOT USED
Auxiliary Coulomb fitting basis             ... AVAILABLE
   # of basis functions in Aux-J            ...    600
   # of shells in Aux-J                     ...    200
   Maximum angular momentum in Aux-J        ...      4
Auxiliary J/K fitting basis                 ... NOT available
Auxiliary Correlation fitting basis         ... NOT available
Auxiliary 'external' fitting basis          ... NOT available
Integral threshold                          ...     2.500000e-11
Primitive cut-off                           ...     2.500000e-12
Primitive pair pre-selection threshold      ...     2.500000e-12

--------------
OVERLAP MATRIX
--------------
                  0          1          2          3          4          5    
      0       1.000000   0.248362   0.000000  -0.000000   0.000000   0.000000
      1       0.248362   1.000000   0.000000  -0.000000  -0.000000   0.000303
      2       0.000000   0.000000   1.000000   0.000000   0.000000   0.000000
      3      -0.000000  -0.000000   0.000000   1.000000  -0.000000   0.000815
      4       0.000000  -0.000000   0.000000  -0.000000   1.000000  -0.000133
      5       0.000000   0.000303   0.000000   0.000815  -0.000133   1.000000
      6       0.000303   0.021870   0.000000   0.035271  -0.005738   0.248362
      7       0.000000   0.000000   0.008318   0.000000   0.000000   0.000000
      8      -0.000815  -0.035271   0.000000  -0.052776   0.009938   0.000000
      9       0.000133   0.005738   0.000000   0.009938   0.006701  -0.000000
     10       0.000001   0.035571   0.000000   0.038184   0.044995   0.000000
     11       0.035571   0.353710   0.000000   0.245796   0.289638   0.001586
     12       0.000000   0.000000   0.204650   0.000000   0.000000   0.000000
     13      -0.038184  -0.245796   0.000000  -0.017878  -0.262219   0.002887
     14      -0.044995  -0.289638   0.000000  -0.262219  -0.104341  -0.002334
     15       0.000000   0.001586   0.000000   0.002887  -0.002334   0.000001
     16       0.001586   0.056188   0.000000   0.064927  -0.052498   0.035571
     17       0.000000   0.000000   0.023307   0.000000   0.000000   0.000000
     18      -0.002887  -0.064927   0.000000  -0.059282   0.066780   0.038184
     19       0.002334   0.052498   0.000000   0.066780  -0.030689   0.044995
     20       0.000000   0.001566   0.000000   0.003439   0.001284   0.000001
     21       0.001566   0.055779   0.000000   0.077714   0.029024   0.035577
     22       0.000000   0.000000   0.023119   0.000000   0.000000   0.000000
     23      -0.003439  -0.077714   0.000000  -0.096044  -0.044504   0.021827
     24      -0.001284  -0.029024   0.000000  -0.044504   0.006498  -0.054839
     25       0.000001   0.035577   0.000000   0.021827  -0.054839   0.000000
     26       0.035577   0.353743   0.000000   0.140487  -0.352970   0.001566
     27       0.000000   0.000000   0.204675   0.000000   0.000000   0.000000
     28      -0.021827  -0.140487   0.000000   0.131985   0.182632   0.003439
     29       0.054839   0.352970   0.000000   0.182632  -0.254182   0.001284
     30       0.005093   0.093008   0.000000   0.029652   0.116986   0.000080
     31       0.000080   0.005902   0.000000   0.006551  -0.007348   0.005093
     32       0.000079   0.005884   0.000000   0.008518   0.004880   0.005080
     33       0.005080   0.092845   0.000000  -0.008985  -0.120165   0.000079
     34       0.000000   0.000000   0.000000   0.000000  -0.000000   0.000000
     35       0.000000   0.000260   0.000000   0.000567  -0.000099   0.029550
     36       0.000000   0.000000   0.000083   0.000000   0.000000   0.000000
     37      -0.000000  -0.000567   0.000000  -0.001169   0.000219  -0.048351
     38       0.000000   0.000099   0.000000   0.000219   0.000045   0.009572
     39       0.000000   0.029550   0.000000  -0.048351   0.009572   0.000000
     40       0.029550   0.317606   0.000000  -0.345288   0.068353   0.000000
     41       0.000000   0.000000   0.177906   0.000000   0.000000   0.000000
     42       0.048351   0.345288   0.000000  -0.301124   0.094828   0.000000
     43      -0.009572  -0.068353   0.000000   0.094828   0.159134  -0.000000
     44       0.000000   0.000082   0.000000   0.000163  -0.000065   0.004869
     45       0.004869   0.090067   0.000000  -0.092109   0.072708   0.000000
     46       0.000000   0.000000   0.000000   0.000000   0.000000   0.000000
     47       0.000000   0.000007   0.000000   0.000019   0.000001   0.001159
     48       0.000000   0.000000   0.000002   0.000000   0.000000   0.000000
     49      -0.000000  -0.000019   0.000000  -0.000048  -0.000001  -0.002719
     50      -0.000000  -0.000001   0.000000  -0.000001   0.000002  -0.000676
     51       0.000000   0.001159   0.000000  -0.002719  -0.000676   0.000000
     52       0.001159   0.046884   0.000000  -0.068991  -0.017144   0.000000
     53       0.000000   0.000000   0.019082   0.000000   0.000000   0.000000
     54       0.002719   0.068991   0.000000  -0.092040  -0.027613   0.000000
     55       0.000676   0.017144   0.000000  -0.027613   0.012221   0.000000
     56       0.000000   0.000024   0.000000   0.000053   0.000013   0.000741
     57       0.000741   0.024680   0.000000  -0.029617  -0.021993   0.000000
     58       0.000000   0.000000   0.000000   0.000001  -0.000000   0.000058
     59       0.000058   0.004808   0.000000  -0.008103  -0.000694   0.000000
                  6          7          8          9         10         11    
      0       0.000303   0.000000  -0.000815   0.000133   0.000001   0.035571
      1       0.021870   0.000000  -0.035271   0.005738   0.035571   0.353710
      2       0.000000   0.008318   0.000000   0.000000   0.000000   0.000000
      3       0.035271   0.000000  -0.052776   0.009938   0.038184   0.245796
      4      -0.005738   0.000000   0.009938   0.006701   0.044995   0.289638
      5       0.248362   0.000000   0.000000  -0.000000   0.000000   0.001586
      6       1.000000   0.000000   0.000000   0.000000   0.001586   0.056188
      7       0.000000   1.000000   0.000000   0.000000   0.000000   0.000000
      8       0.000000   0.000000   1.000000  -0.000000  -0.002887  -0.064927
      9       0.000000   0.000000  -0.000000   1.000000   0.002334   0.052498
     10       0.001586   0.000000  -0.002887   0.002334   1.000000   0.248362
     11       0.056188   0.000000  -0.064927   0.052498   0.248362   1.000000
     12       0.000000   0.023307   0.000000   0.000000   0.000000   0.000000
     13       0.064927   0.000000  -0.059282   0.066780   0.000000   0.000000
     14      -0.052498   0.000000   0.066780  -0.030689  -0.000000   0.000000
     15       0.035571   0.000000  -0.038184  -0.044995   0.000000   0.000389
     16       0.353710   0.000000  -0.245796  -0.289638   0.000389   0.025192
     17       0.000000   0.204650   0.000000   0.000000   0.000000   0.000000
     18       0.245796   0.000000  -0.017878  -0.262219  -0.000366  -0.014325
     19       0.289638   0.000000  -0.262219  -0.104341   0.000973   0.038030
     20       0.035577   0.000000  -0.021827   0.054839   0.000001   0.037289
     21       0.353743   0.000000  -0.140487   0.352970   0.037289   0.363411
     22       0.000000   0.204675   0.000000   0.000000   0.000000   0.000000
     23       0.140487   0.000000   0.131985   0.182632  -0.061038  -0.382052
     24      -0.352970   0.000000   0.182632  -0.254182   0.009854   0.061676
     25       0.001566   0.000000  -0.003439  -0.001284   0.000000   0.001704
     26       0.055779   0.000000  -0.077714  -0.029024   0.001704   0.058556
     27       0.000000   0.023119   0.000000   0.000000   0.000000   0.000000
     28       0.077714   0.000000  -0.096044  -0.044504   0.000640   0.014008
     29       0.029024   0.000000  -0.044504   0.006498   0.003904   0.085461
     30       0.005902   0.000000  -0.006551   0.007348   0.061021   0.485749
     31       0.093008   0.000000  -0.029652  -0.116986   0.000011   0.001755
     32       0.092845   0.000000   0.008985   0.120165   0.005272   0.095346
     33       0.005884   0.000000  -0.008518  -0.004880   0.000084   0.006109
     34       0.029550   0.000000   0.048351  -0.009572   0.000000   0.000002
     35       0.317606   0.000000   0.345288  -0.068353   0.000002   0.001445
     36       0.000000   0.177906   0.000000   0.000000   0.000000   0.000000
     37      -0.345288   0.000000  -0.301124   0.094828  -0.000007  -0.002536
     38       0.068353   0.000000   0.094828   0.159134   0.000004   0.001377
     39       0.000000   0.000000  -0.000000   0.000000   0.000000   0.001261
     40       0.000260   0.000000  -0.000567   0.000099   0.001261   0.049214
     41       0.000000   0.000083   0.000000   0.000000   0.000000   0.000000
     42       0.000567   0.000000  -0.001169   0.000219   0.002868   0.070447
     43      -0.000099   0.000000   0.000219   0.000045   0.000952   0.023391
     44       0.090067   0.000000   0.092109  -0.072708   0.000000   0.000188
     45       0.000082   0.000000  -0.000163   0.000065   0.001315   0.036238
     46       0.001159   0.000000   0.002719   0.000676   0.000000   0.000000
     47       0.046884   0.000000   0.068991   0.017144   0.000000   0.000177
[...]
 5 C  px              0.0       0.0       0.0       0.0       0.6       0.0
 5 C  py              0.0       0.0       0.0       0.0       1.6       3.7
 6 H  s               0.0       0.0       0.0       0.0       6.7       4.2
 7 H  s               0.0       0.0       0.0       0.0       6.7       4.2
 8 H  s               0.0       0.0       0.0       0.0       6.8       2.9
 9 H  s               0.0       0.0       0.0       0.0       6.8       2.9
10 C  s               0.0       0.0       0.0       0.0       1.8       0.0
10 C  pz              0.0      20.6      19.0       4.9       0.0       0.0
10 C  px              0.0       0.0       0.0       0.0       5.4       2.2
10 C  py              0.0       0.0       0.0       0.0       2.6       5.2
11 C  s               0.0       0.0       0.0       0.0       1.8       0.0
11 C  pz              0.0      20.6      19.0       4.9       0.0       0.0
11 C  px              0.0       0.0       0.0       0.0       5.4       2.2
11 C  py              0.0       0.0       0.0       0.0       2.6       5.2
12 H  s               0.0       0.0       0.0       0.0       1.1       7.7
13 H  s               0.0       0.0       0.0       0.0       1.1       7.7
14 C  s               0.0       0.0       0.0       0.0       1.1       0.0
14 C  pz              0.0      21.0      10.0       1.5       0.0       0.0
14 C  px              0.0       0.0       0.0       0.0       1.1       1.2
14 C  py              0.0       0.0       0.0       0.0       0.8       4.0
15 C  s               0.0       0.0       0.0       0.0       1.1       0.0
15 C  pz              0.0      21.0      10.0       1.5       0.0       0.0
15 C  px              0.0       0.0       0.0       0.0       1.1       1.2
15 C  py              0.0       0.0       0.0       0.0       0.8       4.0
16 H  s               0.0       0.0       0.0       0.0       0.6       4.3
17 H  s               0.0       0.0       0.0       0.0       0.6       4.3
18 H  s               0.0       0.0       0.0       0.0       5.0       3.3
19 H  s               0.0       0.0       0.0       0.0       5.0       3.3

                     42        43        44        45        46        47   
                   0.38290   0.38491   0.41439   0.41536   0.43018   0.44302
                   0.00000   0.00000   0.00000   0.00000   0.00000   0.00000
                  --------  --------  --------  --------  --------  --------
 0 C  s               2.5       0.4       2.1       4.4       0.4      12.3
 0 C  px              9.1       0.1       1.0       0.0       2.1       0.0
 0 C  py              0.5       0.4       2.3       0.5       0.6       0.0
 1 C  s               2.5       0.4       2.1       4.4       0.4      12.3
 1 C  px              9.1       0.1       1.0       0.0       2.1       0.0
 1 C  py              0.5       0.4       2.3       0.5       0.6       0.0
 2 C  s               0.4       3.6       4.4       3.6       2.7       5.1
 2 C  px              2.4       0.6       0.7       0.0       3.9       2.5
 2 C  py              0.9       0.0       0.1       0.6       4.1       0.0
 3 C  s               0.4       3.6       4.4       3.6       2.7       5.1
 3 C  px              2.4       0.6       0.7       0.0       3.9       2.5
 3 C  py              0.9       0.0       0.1       0.6       4.1       0.0
 4 C  s               0.0       0.5       7.9       7.7       0.0       3.7
 4 C  px              4.3       1.5       0.0       0.9       0.6       2.0
 4 C  py              2.8       1.4       0.0       0.0       1.8       1.8
 5 C  s               0.0       0.5       7.9       7.7       0.0       3.7
 5 C  px              4.3       1.5       0.0       0.9       0.6       2.0
 5 C  py              2.8       1.4       0.0       0.0       1.8       1.8
 6 H  s               0.5       2.9       1.6       3.7      12.5       3.2
 7 H  s               0.5       2.9       1.6       3.7      12.5       3.2
 8 H  s               6.6       3.4       1.5       4.1       0.1       1.2
 9 H  s               6.6       3.4       1.5       4.1       0.1       1.2
10 C  s               6.6       3.3       0.7       1.6       4.9       6.0
10 C  px              5.1       0.2       1.8       0.9       0.1       0.3
10 C  py              0.1       4.7       0.6       0.9       1.9       0.6
11 C  s               6.6       3.3       0.7       1.6       4.9       6.0
11 C  px              5.1       0.2       1.8       0.9       0.1       0.3
11 C  py              0.1       4.7       0.6       0.9       1.9       0.6
12 H  s               0.7      12.2       1.0       1.4       6.5       4.4
13 H  s               0.7      12.2       1.0       1.4       6.5       4.4
14 C  s               1.6       0.2       9.6       6.7       0.5       3.2
14 C  px              1.0       2.1       0.2       0.6       3.2       0.2
14 C  py              0.3       4.1       2.2       2.4       0.1       0.0
15 C  s               1.6       0.2       9.6       6.7       0.5       3.2
15 C  px              1.0       2.1       0.2       0.6       3.2       0.2
15 C  py              0.3       4.1       2.2       2.4       0.1       0.0
16 H  s               0.0       5.9       8.8       6.8       0.1       1.4
17 H  s               0.0       5.9       8.8       6.8       0.1       1.4
18 H  s               4.4       2.4       3.4       3.2       4.0       2.1
19 H  s               4.4       2.4       3.4       3.2       4.0       2.1

                     48        49        50        51        52        53   
                   0.45612   0.48160   0.52974   0.54922   0.57942   0.60285
                   0.00000   0.00000   0.00000   0.00000   0.00000   0.00000
                  --------  --------  --------  --------  --------  --------
 0 C  s               2.4       1.1       4.1       0.0       0.0       3.5
 0 C  px              0.4       0.1      12.4       0.1       0.1       0.0
 0 C  py              0.8       3.7       0.5      10.3       1.5       1.8
 1 C  s               2.4       1.1       4.1       0.0       0.0       3.5
 1 C  px              0.4       0.1      12.4       0.1       0.1       0.0
 1 C  py              0.8       3.7       0.5      10.3       1.5       1.8
 2 C  s               2.4       9.8       0.1       8.9       0.0       1.2
 2 C  px              0.7       0.4       0.6       0.4       1.4      16.0
 2 C  py              0.7       0.3       7.4       0.0       9.5       1.4
 3 C  s               2.4       9.8       0.1       8.9       0.0       1.2
 3 C  px              0.7       0.4       0.6       0.4       1.4      16.0
 3 C  py              0.7       0.3       7.4       0.0       9.5       1.4
 4 C  s               3.1       7.6       2.0       1.6       0.0       7.2
 4 C  px              0.8       0.9       0.0       7.3       5.2       5.0
 4 C  py              1.2       0.6       3.2       1.2       9.7       3.2
 5 C  s               3.1       7.6       2.0       1.6       0.0       7.2
 5 C  px              0.8       0.9       0.0       7.3       5.2       5.0
 5 C  py              1.2       0.6       3.2       1.2       9.7       3.2
 6 H  s               0.2       1.3       2.3       2.5       6.3       0.1
 7 H  s               0.2       1.3       2.3       2.5       6.3       0.1
 8 H  s               7.3       3.2       0.1       1.3       8.4       1.6
 9 H  s               7.3       3.2       0.1       1.3       8.4       1.6
10 C  s               3.2       1.1       5.1       0.8       2.3       3.1
10 C  px              0.4       0.1       0.0       0.0       0.6       0.2
10 C  py              0.2       0.0       0.8       2.4       0.4       0.2
11 C  s               3.2       1.1       5.1       0.8       2.3       3.1
11 C  px              0.4       0.1       0.0       0.0       0.6       0.2
11 C  py              0.2       0.0       0.8       2.4       0.4       0.2
12 H  s               2.8       0.1       2.6       0.8       0.2       1.6
13 H  s               2.8       0.1       2.6       0.8       0.2       1.6
14 C  s              10.2       3.7       0.2       0.1       1.4       0.0
14 C  px              0.1       5.3       0.8       7.9       2.1       0.2
14 C  py              1.0       0.6       3.8       0.0       0.2       2.2
15 C  s              10.2       3.7       0.2       0.1       1.4       0.0
15 C  px              0.1       5.3       0.8       7.9       2.1       0.2
15 C  py              1.0       0.6       3.8       0.0       0.2       2.2
16 H  s               8.7       2.6       1.8       0.3       0.4       1.3
17 H  s               8.7       2.6       1.8       0.3       0.4       1.3
18 H  s               3.3       7.3       2.0       4.2       0.2       0.0
19 H  s               3.3       7.3       2.0       4.2       0.2       0.0

                     54        55        56        57        58        59   
                   0.62848   0.64302   0.68642   0.72063   0.78292   0.79789
                   0.00000   0.00000   0.00000   0.00000   0.00000   0.00000
                  --------  --------  --------  --------  --------  --------
 0 C  s               7.4       0.1       0.3       0.4       0.0       1.5
 0 C  px              0.2       4.2       5.0       0.4       0.0      11.8
 0 C  py              1.3       0.5       0.6       5.8      14.2       0.8
 1 C  s               7.4       0.1       0.3       0.4       0.0       1.5
 1 C  px              0.2       4.2       5.0       0.4       0.0      11.8
 1 C  py              1.3       0.5       0.6       5.8      14.2       0.8
 2 C  s               0.2       0.7       0.3       2.0       0.0       2.0
 2 C  px              0.3       4.5       4.8       0.4       8.3       1.5
 2 C  py              1.8       2.1       0.5       1.2       1.7       8.5
 3 C  s               0.2       0.7       0.3       2.0       0.0       2.0
 3 C  px              0.3       4.5       4.8       0.4       8.3       1.5
 3 C  py              1.8       2.1       0.5       1.2       1.7       8.5
 4 C  s               0.7       0.8       0.3       0.5       0.0       2.6
 4 C  px              1.2       2.9       6.1       1.3       5.1       3.9
 4 C  py              4.0       1.0       0.0       0.1       5.5       6.8
 5 C  s               0.7       0.8       0.3       0.5       0.0       2.6
 5 C  px              1.2       2.9       6.1       1.3       5.1       3.9
 5 C  py              4.0       1.0       0.0       0.1       5.5       6.8
 6 H  s               0.5       1.4       0.0       0.0       0.0       2.1
 7 H  s               0.5       1.4       0.0       0.0       0.0       2.1
 8 H  s               0.0       0.1       1.1       0.3       0.1       2.2
 9 H  s               0.0       0.1       1.1       0.3       0.1       2.2
10 C  s               0.6       1.5       1.6       3.4       0.7       0.2
10 C  px              7.0       1.2      13.0       5.5       2.6       4.0
10 C  py              3.2       9.5       0.3      10.3       4.9       0.0
11 C  s               0.6       1.5       1.6       3.4       0.7       0.2
11 C  px              7.0       1.2      13.0       5.5       2.6       4.0
11 C  py              3.2       9.5       0.3      10.3       4.9       0.0
12 H  s               3.4       3.2       0.5       1.0       0.7       0.1
13 H  s               3.4       3.2       0.5       1.0       0.7       0.1
14 C  s               0.3       0.8       2.2       4.6       1.6       0.1
14 C  px              2.0       8.8       1.0       8.0       2.7       0.0
14 C  py              8.7       1.0       9.9       4.2       1.7       1.4
15 C  s               0.3       0.8       2.2       4.6       1.6       0.1
15 C  px              2.0       8.8       1.0       8.0       2.7       0.0
15 C  py              8.7       1.0       9.9       4.2       1.7       1.4
16 H  s               3.9       2.3       2.1       0.0       0.1       0.5
17 H  s               3.9       2.3       2.1       0.0       0.1       0.5
18 H  s               3.3       3.4       0.3       0.4       0.1       0.1
19 H  s               3.3       3.4       0.3       0.4       0.1       0.1



                      *****************************
                      * MAYER POPULATION ANALYSIS *
                      *****************************

  NA   - Mulliken gross atomic population
  ZA   - Total nuclear charge
  QA   - Mulliken gross atomic charge
  VA   - Mayer's total valence
  BVA  - Mayer's bonded valence
  FA   - Mayer's free valence

  ATOM       NA         ZA         QA         VA         BVA        FA
  0 C      6.0044     6.0000    -0.0044     3.9730     3.9730    -0.0000
  1 C      6.0044     6.0000    -0.0044     3.9730     3.9730    -0.0000
  2 C      6.0764     6.0000    -0.0764     3.9692     3.9692     0.0000
  3 C      6.0764     6.0000    -0.0764     3.9692     3.9692     0.0000
  4 C      6.0769     6.0000    -0.0769     3.9701     3.9701    -0.0000
  5 C      6.0769     6.0000    -0.0769     3.9701     3.9701     0.0000
  6 H      0.9226     1.0000     0.0774     0.9940     0.9940     0.0000
  7 H      0.9226     1.0000     0.0774     0.9940     0.9940     0.0000
  8 H      0.9210     1.0000     0.0790     0.9938     0.9938     0.0000
  9 H      0.9210     1.0000     0.0790     0.9938     0.9938    -0.0000
 10 C      6.0761     6.0000    -0.0761     3.9681     3.9681     0.0000
 11 C      6.0761     6.0000    -0.0761     3.9681     3.9681     0.0000
 12 H      0.9234     1.0000     0.0766     0.9941     0.9941     0.0000
 13 H      0.9234     1.0000     0.0766     0.9941     0.9941     0.0000
 14 C      6.1543     6.0000    -0.1543     3.9648     3.9648     0.0000
 15 C      6.1543     6.0000    -0.1543     3.9648     3.9648    -0.0000
 16 H      0.9239     1.0000     0.0761     0.9942     0.9942     0.0000
 17 H      0.9239     1.0000     0.0761     0.9942     0.9942     0.0000
 18 H      0.9209     1.0000     0.0791     0.9937     0.9937     0.0000
 19 H      0.9209     1.0000     0.0791     0.9937     0.9937     0.0000

  Mayer bond orders larger than 0.100000
B(  0-C ,  2-C ) :   1.3625 B(  0-C ,  5-C ) :   1.3654 B(  0-C , 11-C ) :   1.0665 
B(  1-C ,  3-C ) :   1.3625 B(  1-C ,  4-C ) :   1.3654 B(  1-C , 10-C ) :   1.0665 
B(  2-C ,  4-C ) :   1.4653 B(  2-C ,  6-H ) :   0.9614 B(  3-C ,  5-C ) :   1.4653 
B(  3-C ,  7-H ) :   0.9614 B(  4-C ,  5-C ) :   0.1019 B(  4-C ,  8-H ) :   0.9596 
B(  5-C ,  9-H ) :   0.9596 B( 10-C , 12-H ) :   0.9591 B( 10-C , 14-C ) :   1.9012 
B( 11-C , 13-H ) :   0.9591 B( 11-C , 15-C ) :   1.9012 B( 14-C , 16-H ) :   0.9665 
B( 14-C , 18-H ) :   0.9693 B( 15-C , 17-H ) :   0.9665 B( 15-C , 19-H ) :   0.9693 


-------
TIMINGS
-------

Total SCF time: 0 days 0 hours 0 min 18 sec 

Total time                  ....      18.025 sec
Sum of individual times     ....      17.778 sec  ( 98.6%)

Fock matrix formation       ....      15.217 sec  ( 84.4%)
  Split-RI-J                ....       1.230 sec  (  8.1% of F)
  Chain of spheres X        ....      12.296 sec  ( 80.8% of F)
  XC integration            ....       1.679 sec  ( 11.0% of F)
    Basis function eval.    ....       0.801 sec  ( 47.7% of XC)
    Density eval.           ....       0.342 sec  ( 20.4% of XC)
    XC-Functional eval.     ....       0.235 sec  ( 14.0% of XC)
    XC-Potential eval.      ....       0.113 sec  (  6.7% of XC)
Diagonalization             ....       0.012 sec  (  0.1%)
Density matrix formation    ....       0.001 sec  (  0.0%)
Population analysis         ....       0.025 sec  (  0.1%)
Initial guess               ....       0.006 sec  (  0.0%)
Orbital Transformation      ....       0.000 sec  (  0.0%)
Orbital Orthonormalization  ....       0.001 sec  (  0.0%)
DIIS solution               ....       0.008 sec  (  0.0%)
SOSCF solution              ....       0.067 sec  (  0.4%)
Grid generation             ....       2.441 sec  ( 13.5%)

Maximum memory used throughout the entire SCF-calculation: 50.1 MB

-------------------------   --------------------
FINAL SINGLE POINT ENERGY      -382.055133372796
-------------------------   --------------------

                                *** OPTIMIZATION RUN DONE ***

                            ***************************************
                            *     ORCA property calculations      *
                            ***************************************

                                    ---------------------
                                    Active property flags
                                    ---------------------
   (+) Dipole Moment


------------------------------------------------------------------------------
                       ORCA ELECTRIC PROPERTIES CALCULATION
------------------------------------------------------------------------------

Dipole Moment Calculation                       ... on
Quadrupole Moment Calculation                   ... off
Polarizability Calculation                      ... off
GBWName                                         ... dvb_gopt.gbw
Electron density                                ... dvb_gopt.scfp
----------------------
SHARK INTEGRAL PACKAGE
----------------------

Number of atoms                             ...     20
Number of basis functions                   ...     60
Number of shells                            ...     40
Maximum angular momentum                    ...      1
Integral batch strategy                     ... SHARK/LIBINT Hybrid
RI-J (if used) integral strategy            ... SPLIT-RIJ (Revised 2003 algorithm where possible)
Printlevel                                  ...      2
Contraction scheme used                     ... SEGMENTED contraction
Coulomb Range Separation                    ... NOT USED
Exchange Range Separation                   ... NOT USED
Finite Nucleus Model                        ... NOT USED
Auxiliary Coulomb fitting basis             ... AVAILABLE
   # of basis functions in Aux-J            ...    600
   # of shells in Aux-J                     ...    200
   Maximum angular momentum in Aux-J        ...      4
Auxiliary J/K fitting basis                 ... NOT available
Auxiliary Correlation fitting basis         ... NOT available
Auxiliary 'external' fitting basis          ... NOT available
Integral threshold                          ...     2.500000e-11
Primitive cut-off                           ...     2.500000e-12
Primitive pair pre-selection threshold      ...     2.500000e-12

The origin for moment calculation is the CENTER OF MASS  = ( 0.000000, -0.000000 -0.000000)

-------------
DIPOLE MOMENT
-------------
                                X             Y             Z
Electronic contribution:      0.00000      -0.00000      -0.00000
Nuclear contribution   :     -0.00000       0.00000       0.00000
                        -----------------------------------------
Total Dipole Moment    :     -0.00000       0.00000       0.00000
                        -----------------------------------------
Magnitude (a.u.)       :      0.00000
Magnitude (Debye)      :      0.00000



--------------------
Rotational spectrum 
--------------------
 
Rotational constants in cm-1:     0.154171     0.022817     0.019875 
Rotational constants in MHz :  4621.924716   684.024168   595.842191 

 Dipole components along the rotational axes: 
x,y,z [a.u.] :    -0.000000    -0.000000     0.000000 
x,y,z [Debye]:    -0.000000    -0.000000     0.000000 

 

Timings for individual modules:

Sum of individual times         ...      157.112 sec (=   2.619 min)
GTO integral calculation        ...       12.222 sec (=   0.204 min)   7.8 %
SCF iterations                  ...      106.383 sec (=   1.773 min)  67.7 %
SCF Gradient evaluation         ...       37.248 sec (=   0.621 min)  23.7 %
Geometry relaxation             ...        1.259 sec (=   0.021 min)   0.8 %
                             ****ORCA TERMINATED NORMALLY****
TOTAL RUN TIME: 0 days 0 hours 2 minutes 39 seconds 705 msec
