
                                        *****************
                                        * O   R   C   A *
                                        *****************

                                            #,                                       
                                            ###                                      
                                            ####                                     
                                            #####                                    
                                            ######                                   
                                           ########,                                 
                                     ,,################,,,,,                         
                               ,,#################################,,                 
                          ,,##########################################,,             
                       ,#########################################, ''#####,          
                    ,#############################################,,   '####,        
                  ,##################################################,,,,####,       
                ,###########''''           ''''###############################       
              ,#####''   ,,,,##########,,,,          '''####'''          '####       
            ,##' ,,,,###########################,,,                        '##       
           ' ,,###''''                  '''############,,,                           
         ,,##''                                '''############,,,,        ,,,,,,###''
      ,#''                                            '''#######################'''  
     '                                                          ''''####''''         
             ,#######,   #######,   ,#######,      ##                                
            ,#'     '#,  ##    ##  ,#'     '#,    #''#        ######   ,####,        
            ##       ##  ##   ,#'  ##            #'  '#       #        #'  '#        
            ##       ##  #######   ##           ,######,      #####,   #    #        
            '#,     ,#'  ##    ##  '#,     ,#' ,#      #,         ##   #,  ,#        
             '#######'   ##     ##  '#######'  #'      '#     #####' # '####'        



                  #######################################################
                  #                        -***-                        #
                  #          Department of theory and spectroscopy      #
                  #    Directorship and core code : Frank Neese         #
                  #        Max Planck Institute fuer Kohlenforschung    #
                  #                Kaiser Wilhelm Platz 1               #
                  #                 D-45470 Muelheim/Ruhr               #
                  #                      Germany                        #
                  #                                                     #
                  #                  All rights reserved                #
                  #                        -***-                        #
                  #######################################################


                         Program Version 5.0.0 -  RELEASE  -
                                (SVN: $Rev: 19529$)
                ($Date: 2021-06-28 11:36:33 +0200 (Mo, 28 Jun 2021) $)


 With contributions from (in alphabetic order):
   Daniel Aravena         : Magnetic Suceptibility
   Michael Atanasov       : Ab Initio Ligand Field Theory (pilot matlab implementation)
   Alexander A. Auer      : GIAO ZORA, VPT2 properties, NMR spectrum
   Ute Becker             : Parallelization
   Giovanni Bistoni       : ED, misc. LED, open-shell LED, HFLD
   Martin Brehm           : Molecular dynamics
   Dmytro Bykov           : SCF Hessian
   Vijay G. Chilkuri      : MRCI spin determinant printing, contributions to CSF-ICE
   Dipayan Datta          : RHF DLPNO-CCSD density
   Achintya Kumar Dutta   : EOM-CC, STEOM-CC
   Dmitry Ganyushin       : Spin-Orbit,Spin-Spin,Magnetic field MRCI
   Miquel Garcia          : C-PCM Hessian, Gaussian charge scheme
   Yang Guo               : DLPNO-NEVPT2, F12-NEVPT2, CIM, IAO-localization
   Andreas Hansen         : Spin unrestricted coupled pair/coupled cluster methods
   Benjamin Helmich-Paris : MC-RPA, TRAH-SCF, COSX integrals
   Lee Huntington         : MR-EOM, pCC
   Robert Izsak           : Overlap fitted RIJCOSX, COSX-SCS-MP3, EOM
   Marcus Kettner         : VPT2
   Christian Kollmar      : KDIIS, OOCD, Brueckner-CCSD(T), CCSD density, CASPT2, CASPT2-K
   Simone Kossmann        : Meta GGA functionals, TD-DFT gradient, OOMP2, MP2 Hessian
   Martin Krupicka        : Initial AUTO-CI
   Lucas Lang             : DCDCAS
   Marvin Lechner         : AUTO-CI (C++ implementation), FIC-MRCC
   Dagmar Lenk            : GEPOL surface, SMD
   Dimitrios Liakos       : Extrapolation schemes; Compound Job, initial MDCI parallelization
   Dimitrios Manganas     : Further ROCIS development; embedding schemes
   Dimitrios Pantazis     : SARC Basis sets
   Anastasios Papadopoulos: AUTO-CI, single reference methods and gradients
   Taras Petrenko         : DFT Hessian,TD-DFT gradient, ASA, ECA, R-Raman, ABS, FL, XAS/XES, NRVS
   Peter Pinski           : DLPNO-MP2, DLPNO-MP2 Gradient
   Christoph Reimann      : Effective Core Potentials
   Marius Retegan         : Local ZFS, SOC
   Christoph Riplinger    : Optimizer, TS searches, QM/MM, DLPNO-CCSD(T), (RO)-DLPNO pert. Triples
   Tobias Risthaus        : Range-separated hybrids, TD-DFT gradient, RPA, STAB
   Michael Roemelt        : Original ROCIS implementation
   Masaaki Saitow         : Open-shell DLPNO-CCSD energy and density
   Barbara Sandhoefer     : DKH picture change effects
   Avijit Sen             : IP-ROCIS
   Kantharuban Sivalingam : CASSCF convergence, NEVPT2, FIC-MRCI
   Bernardo de Souza      : ESD, SOC TD-DFT
   Georgi Stoychev        : AutoAux, RI-MP2 NMR
   Willem Van den Heuvel  : Paramagnetic NMR
   Boris Wezisla          : Elementary symmetry handling
   Frank Wennmohs         : Technical directorship


 We gratefully acknowledge several colleagues who have allowed us to
 interface, adapt or use parts of their codes:
   Stefan Grimme, W. Hujo, H. Kruse, P. Pracht,  : VdW corrections, initial TS optimization,
                  C. Bannwarth, S. Ehlert          DFT functionals, gCP, sTDA/sTD-DF
   Ed Valeev, F. Pavosevic, A. Kumar             : LibInt (2-el integral package), F12 methods
   Garnet Chan, S. Sharma, J. Yang, R. Olivares  : DMRG
   Ulf Ekstrom                                   : XCFun DFT Library
   Mihaly Kallay                                 : mrcc  (arbitrary order and MRCC methods)
   Jiri Pittner, Ondrej Demel                    : Mk-CCSD
   Frank Weinhold                                : gennbo (NPA and NBO analysis)
   Christopher J. Cramer and Donald G. Truhlar   : smd solvation model
   Lars Goerigk                                  : TD-DFT with DH, B97 family of functionals
   V. Asgeirsson, H. Jonsson                     : NEB implementation
   FAccTs GmbH                                   : IRC, NEB, NEB-TS, DLPNO-Multilevel, CI-OPT
                                                   MM, QMMM, 2- and 3-layer-ONIOM, Crystal-QMMM,
                                                   LR-CPCM, SF, NACMEs, symmetry and pop. for TD-DFT,
                                                   nearIR, NL-DFT gradient (VV10), updates on ESD,
                                                   ML-optimized integration grids
   S Lehtola, MJT Oliveira, MAL Marques          : LibXC Library
   Liviu Ungur et al                             : ANISO software


 Your calculation uses the libint2 library for the computation of 2-el integrals
 For citations please refer to: http://libint.valeyev.net

 Your ORCA version has been built with support for libXC version: 5.1.0
 For citations please refer to: https://tddft.org/programs/libxc/

 This ORCA versions uses:
   CBLAS   interface :  Fast vector & matrix operations
   LAPACKE interface :  Fast linear algebra routines
   SCALAPACK package :  Parallel linear algebra routines
   Shared memory     :  Shared parallel matrices
   BLAS/LAPACK       :  OpenBLAS 0.3.15  USE64BITINT DYNAMIC_ARCH NO_AFFINITY Haswell SINGLE_THREADED
        Core in use  :  Haswell
   Copyright (c) 2011-2014, The OpenBLAS Project


================================================================================

----- Orbital basis set information -----
Your calculation utilizes the basis: STO-3G
   H-Ne       : W. J. Hehre, R. F. Stewart and J. A. Pople, J. Chem. Phys. 2657 (1969).
   Na-Ar      : W. J. Hehre, R. Ditchfield, R. F. Stewart and J. A. Pople, J. Chem. Phys. 2769 (1970).
   K,Ca,Ga-Kr : W. J. Pietro, B. A. Levy, W. J. Hehre and R. F. Stewart, J. Am. Chem. Soc. 19, 2225 (1980).
   Sc-Zn,Y-Cd : W. J. Pietro and W. J. Hehre, J. Comp. Chem. 4, 241 (1983).

================================================================================
                                        WARNINGS
                       Please study these warnings very carefully!
================================================================================


INFO   : the flag for use of the SHARK integral package has been found!

================================================================================
                                       INPUT FILE
================================================================================
NAME = dvb_scan_unrelaxed.inp
|  1> ! HF STO-3G 
|  2> 
|  3> %output
|  4>  printlevel normal
|  5>  print[ p_basis ] 2
|  6>  print[ p_mos ] 1
|  7> end
|  8> 
|  9> %paras 
| 10>    B1    =        1.39155762
| 11>    B2    =        1.38920112
| 12>    B3    =        1.36617670
| 13>    B4    =        1.39155762
| 14>    B5    =        1.09491754
| 15>    B6    =        1.09598547
| 16>    B7    =        1.09491754
| 17>    B8    =        1.48585283
| 18>    B9    =        1.34292581
| 19>    B10   =        1.10354826
| 20>    B11   =        1.09829801
| 21>    B12   =        1.07000000
| 22>    B13   =        1.48585283
| 23>    B14   =        1.09829801
| 24>    B15   =        1.34292581
| 25>    B16   =        1.10354826
| 26>    B17   =        1.07000000
| 27>    B18   =        1.38920112
| 28>    B19   =        1.09598547
| 29>    A1    =      120.26061806
| 30>    A2    =      119.60307576
| 31>    A3    =      120.13630618
| 32>    A4    =      119.89927090
| 33>    A5    =      119.94428410
| 34>    A6    =      119.89927090
| 35>    A7    =      119.97332138
| 36>    A8    =      123.60169362
| 37>    A9    =      119.56877435
| 38>    A10   =      115.51294680
| 39>    A11   =      122.34164357
| 40>    A12   =      119.89037245
| 41>    A13   =      115.51294680
| 42>    A14   =      123.60169362
| 43>    A15   =      119.56877435
| 44>    A16   =      122.34164357
| 45>    A17   =      120.26061806
| 46>    A18   =      119.94428410
| 47>    D1    =        0.00000000
| 48>    D2    =        0.00000000
| 49>    D3    =      180.00000000
| 50>    D4    =      180.00000000
| 51>    D5    =      180.00000000
| 52>    D6    =      180.00000000
| 53>    D7    =    0.0, 360.0, 12
| 54>    D8    =        0.00000000
| 55>    D9    =        0.00000000
| 56>    D10   =      180.00000000
| 57>    D11   =      180.00000000
| 58>    D12   =      180.00000000
| 59>    D13   =        0.00000000
| 60>    D14   =        0.00000000
| 61>    D15   =      180.00000000
| 62>    D16   =        0.00000000
| 63>    D17   =      180.00000000
| 64> end
| 65> 
| 66> *int 0 1
| 67>  C                  0    0    0       0.0                  0.0                   0.0
| 68>  C                  1    0    0       {B1}                 0.0                   0.0
| 69>  C                  2    1    0       {B2}                 {A1}                  0.0
| 70>  C                  3    2    1       {B3}                 {A2}                  {D1}
| 71>  C                  4    3    2       {B4}                 {A3}                  {D2}
| 72>  H                  2    1    5       {B5}                 {A4}                  {D3}
| 73>  H                  3    2    1       {B6}                 {A5}                  {D4}
| 74>  H                  5    4    3       {B7}                 {A6}                  {D5}
| 75>  C                  4    3    2       {B8}                 {A7}                  {D6}
| 76>  C                  9    4    3       {B9}                 {A8}                  {D7}
| 77>  H                 10    9    4      {B10}                 {A9}                  {D8}
| 78>  H                  9    4    3      {B11}                {A10}                  {D9}
| 79>  H                 10    9    4      {B12}                {A11}                 {D10}
| 80>  C                  1    2    3      {B13}                {A12}                 {D11}
| 81>  H                 14    1    2      {B14}                {A13}                 {D12}
| 82>  C                 14    1    2      {B15}                {A14}                 {D13}
| 83>  H                 16   14    1      {B16}                {A15}                 {D14}
| 84>  H                 16   14    1      {B17}                {A16}                 {D15}
| 85>  C                  5    4    3      {B18}                {A17}                 {D16}
| 86>  H                 19    5    4      {B19}                {A18}                 {D17}
| 87> *
| 88> 
| 89>                          ****END OF INPUT****
================================================================================

                       ******************************
                       * Parameter Scan Calculation *
                       ******************************

Trajectory settings:
    -> SCF surface will be mapped

There are 1 parameter(s) to be scanned
            D7: range=   0.00000000 .. 360.00000000  steps=   12
There will be   12 energy evaluations


         *************************************************************
                                TRAJECTORY STEP   1
                 D7  :   0.00000000
         *************************************************************
---------------------------------
CARTESIAN COORDINATES (ANGSTROEM)
---------------------------------
  C      0.000000    0.000000    0.000000
  C      1.391558    0.000000    0.000000
  C      2.091623    1.199912    0.000000
  C      1.405722    2.381427    0.000000
  C      0.014165    2.381427    0.000000
  H      1.937349   -0.949187    0.000000
  H      3.187592    1.193861    0.000000
  H     -0.531626    3.330614    0.000000
  C      2.146185    3.669632    0.000000
  C      3.486295    3.756559    0.000000
  H      4.091847    2.833995    0.000000
  H      3.241279    3.585803    0.000000
  H      3.998992    4.695730    0.000000
  C     -0.740463   -1.288205   -0.000000
  H     -1.835557   -1.204377   -0.000000
  C     -0.141086   -2.489953   -0.000000
  H      0.960888   -2.548878   -0.000000
  H     -0.694583   -3.405672   -0.000000
  C     -0.685901    1.181515    0.000000
  H     -1.781870    1.187566    0.000000

----------------------------
CARTESIAN COORDINATES (A.U.)
----------------------------
  NO LB      ZA    FRAG     MASS         X           Y           Z
   0 C     6.0000    0    12.011    0.000000    0.000000    0.000000
   1 C     6.0000    0    12.011    2.629663    0.000000    0.000000
   2 C     6.0000    0    12.011    3.952595    2.267504    0.000000
   3 C     6.0000    0    12.011    2.656430    4.500245    0.000000
   4 C     6.0000    0    12.011    0.026767    4.500245    0.000000
   5 H     1.0000    0     1.008    3.661058   -1.793704    0.000000
   6 H     1.0000    0     1.008    6.023676    2.256069    0.000000
   7 H     1.0000    0     1.008   -1.004628    6.293949    0.000000
   8 C     6.0000    0    12.011    4.055702    6.934600    0.000000
   9 C     6.0000    0    12.011    6.588142    7.098868    0.000000
  10 H     1.0000    0     1.008    7.732471    5.355474    0.000000
  11 H     1.0000    0     1.008    6.125130    6.776186    0.000000
  12 H     1.0000    0     1.008    7.557000    8.873643    0.000000
  13 C     6.0000    0    12.011   -1.399272   -2.434355   -0.000000
  14 H     1.0000    0     1.008   -3.468700   -2.275942   -0.000000
  15 C     6.0000    0    12.011   -0.266614   -4.705329   -0.000000
  16 H     1.0000    0     1.008    1.815815   -4.816682   -0.000000
  17 H     1.0000    0     1.008   -1.312571   -6.435787   -0.000000
  18 C     6.0000    0    12.011   -1.296165    2.232740    0.000000
  19 H     1.0000    0     1.008   -3.367246    2.244175    0.000000

--------------------------------
INTERNAL COORDINATES (ANGSTROEM)
--------------------------------
 C      0   0   0     0.000000000000     0.00000000     0.00000000
 C      1   0   0     1.391557620000     0.00000000     0.00000000
 C      2   1   0     1.389201120000   120.26061806     0.00000000
 C      3   2   1     1.366176700000   119.60307576     0.00000000
 C      4   3   2     1.391557620000   120.13630618     0.00000000
 H      2   1   5     1.094917540000   119.89927090   180.00000000
 H      3   2   1     1.095985470000   119.94428410   180.00000000
 H      5   4   3     1.094917540000   119.89927090   180.00000000
 C      4   3   2     1.485852830000   119.97332138   180.00000000
 C      9   4   3     1.342925810000   123.60169362     0.00000000
 H     10   9   4     1.103548260000   119.56877435     0.00000000
 H      9   4   3     1.098298010000   115.51294680     0.00000000
 H     10   9   4     1.070000000000   122.34164357   180.00000000
 C      1   2   3     1.485852830000   119.89037245   180.00000000
 H     14   1   2     1.098298010000   115.51294680   180.00000000
 C     14   1   2     1.342925810000   123.60169362     0.00000000
 H     16  14   1     1.103548260000   119.56877435     0.00000000
 H     16  14   1     1.070000000000   122.34164357   180.00000000
 C      5   4   3     1.389201120000   120.26061806     0.00000000
 H     19   5   4     1.095985470000   119.94428410   180.00000000

---------------------------
INTERNAL COORDINATES (A.U.)
---------------------------
 C      0   0   0     0.000000000000     0.00000000     0.00000000
 C      1   0   0     2.629662801371     0.00000000     0.00000000
 C      2   1   0     2.625209661737   120.26061806     0.00000000
 C      3   2   1     2.581699813544   119.60307576     0.00000000
 C      4   3   2     2.629662801371   120.13630618     0.00000000
 H      2   1   5     2.069094289827   119.89927090   180.00000000
 H      3   2   1     2.071112385057   119.94428410   180.00000000
 H      5   4   3     2.069094289827   119.89927090   180.00000000
 C      4   3   2     2.807854924012   119.97332138   180.00000000
 C      9   4   3     2.537761999074   123.60169362     0.00000000
 H     10   9   4     2.085403986965   119.56877435     0.00000000
 H      9   4   3     2.075482452331   115.51294680     0.00000000
 H     10   9   4     2.022006963296   122.34164357   180.00000000
 C      1   2   3     2.807854924012   119.89037245   180.00000000
 H     14   1   2     2.075482452331   115.51294680   180.00000000
 C     14   1   2     2.537761999074   123.60169362     0.00000000
 H     16  14   1     2.085403986965   119.56877435     0.00000000
 H     16  14   1     2.022006963296   122.34164357   180.00000000
 C      5   4   3     2.625209661737   120.26061806     0.00000000
 H     19   5   4     2.071112385057   119.94428410   180.00000000

---------------------
BASIS SET INFORMATION
---------------------
There are 2 groups of distinct atoms

 Group   1 Type C   : 6s3p contracted to 2s1p pattern {33/3}
 Group   2 Type H   : 3s contracted to 1s pattern {3}

Atom   0C    basis set group =>   1
Atom   1C    basis set group =>   1
Atom   2C    basis set group =>   1
Atom   3C    basis set group =>   1
Atom   4C    basis set group =>   1
Atom   5H    basis set group =>   2
Atom   6H    basis set group =>   2
Atom   7H    basis set group =>   2
Atom   8C    basis set group =>   1
Atom   9C    basis set group =>   1
Atom  10H    basis set group =>   2
Atom  11H    basis set group =>   2
Atom  12H    basis set group =>   2
Atom  13C    basis set group =>   1
Atom  14H    basis set group =>   2
Atom  15C    basis set group =>   1
Atom  16H    basis set group =>   2
Atom  17H    basis set group =>   2
Atom  18C    basis set group =>   1
Atom  19H    basis set group =>   2

-------------------------
BASIS SET IN INPUT FORMAT
-------------------------

 # Basis set for element : H 
 NewGTO H 
 S 3 
   1       3.4252509100      0.1543289707
   2       0.6239137300      0.5353281424
   3       0.1688554000      0.4446345420
  end;

 # Basis set for element : C 
 NewGTO C 
 S 3 
   1      71.6168370000      0.1543289700
   2      13.0450960000      0.5353281400
   3       3.5305122000      0.4446345400
 S 3 
   1       2.9412494000     -0.0999672301
   2       0.6834831000      0.3995128303
   3       0.2222899000      0.7001154705
 P 3 
   1       2.9412494000      0.1559162721
   2       0.6834831000      0.6076837282
   3       0.2222899000      0.3919573953
  end;

------------------------------------------------------------------------------
                           ORCA GTO INTEGRAL CALCULATION
------------------------------------------------------------------------------
------------------------------------------------------------------------------
                   ___                                                        
                  /   \      - P O W E R E D   B Y -                         
                 /     \                                                     
                 |  |  |   _    _      __       _____    __    __             
                 |  |  |  | |  | |    /  \     |  _  \  |  |  /  |          
                  \  \/   | |  | |   /    \    | | | |  |  | /  /          
                 / \  \   | |__| |  /  /\  \   | |_| |  |  |/  /          
                |  |  |   |  __  | /  /__\  \  |    /   |      \           
                |  |  |   | |  | | |   __   |  |    \   |  |\   \          
                \     /   | |  | | |  |  |  |  | |\  \  |  | \   \       
                 \___/    |_|  |_| |__|  |__|  |_| \__\ |__|  \__/        
                                                                              
                      - O R C A' S   B I G   F R I E N D -                    
                                      &                                       
                       - I N T E G R A L  F E E D E R -                       
                                                                              
 v1 FN, 2020, v2 2021                                                         
------------------------------------------------------------------------------


Reading SHARK input file dvb_scan_unrelaxed.SHARKINP.tmp ... ok
----------------------
SHARK INTEGRAL PACKAGE
----------------------

Number of atoms                             ...     20
Number of basis functions                   ...     60
Number of shells                            ...     40
Maximum angular momentum                    ...      1
Integral batch strategy                     ... SHARK/LIBINT Hybrid
RI-J (if used) integral strategy            ... SPLIT-RIJ (Revised 2003 algorithm where possible)
Printlevel                                  ...      2
Contraction scheme used                     ... SEGMENTED contraction
Coulomb Range Separation                    ... NOT USED
Exchange Range Separation                   ... NOT USED
Finite Nucleus Model                        ... NOT USED
Auxiliary Coulomb fitting basis             ... NOT available
Auxiliary J/K fitting basis                 ... NOT available
Auxiliary Correlation fitting basis         ... NOT available
Auxiliary 'external' fitting basis          ... NOT available
Integral threshold                          ...     1.000000e-10
Primitive cut-off                           ...     1.000000e-11
Primitive pair pre-selection threshold      ...     1.000000e-11

Calculating pre-screening integrals         ... done (  0.0 sec) Dimension = 40
Organizing shell pair data                  ... done (  0.0 sec)
Shell pair information
Total number of shell pairs                 ...       820
Shell pairs after pre-screening             ...       760
Total number of primitive shell pairs       ...      7380
Primitive shell pairs kept                  ...      4874
          la=0 lb=0:    411 shell pairs
          la=1 lb=0:    294 shell pairs
          la=1 lb=1:     55 shell pairs

Calculating one electron integrals          ... done (  0.0 sec)
Calculating Nuclear repulsion               ... done (  0.0 sec) ENN=    465.089018243124 Eh

SHARK setup successfully completed in   0.0 seconds

Maximum memory used throughout the entire GTOINT-calculation: 5.6 MB
-------------------------------------------------------------------------------
                                 ORCA SCF
-------------------------------------------------------------------------------

------------
SCF SETTINGS
------------
Hamiltonian:
 Ab initio Hamiltonian  Method          .... Hartree-Fock(GTOs)


General Settings:
 Integral files         IntName         .... dvb_scan_unrelaxed
 Hartree-Fock type      HFTyp           .... RHF
 Total Charge           Charge          ....    0
 Multiplicity           Mult            ....    1
 Number of Electrons    NEL             ....   70
 Basis Dimension        Dim             ....   60
 Nuclear Repulsion      ENuc            ....    465.0890182431 Eh

Convergence Acceleration:
 DIIS                   CNVDIIS         .... on
   Start iteration      DIISMaxIt       ....    12
   Startup error        DIISStart       ....  0.200000
   # of expansion vecs  DIISMaxEq       ....     5
   Bias factor          DIISBfac        ....   1.050
   Max. coefficient     DIISMaxC        ....  10.000
 Trust-Rad. Augm. Hess. CNVTRAH         .... auto
   Auto Start mean grad. ratio tolernc. ....  1.125000
   Auto Start start iteration           ....    20
   Auto Start num. interpolation iter.  ....    10
   Max. Number of Micro iterations      ....    16
   Max. Number of Macro iterations      .... Maxiter - #DIIS iter
   Number of Davidson start vectors     ....     2
   Converg. threshold I  (grad. norm)   ....   5.000e-05
   Converg. threshold II (energy diff.) ....   1.000e-06
   Grad. Scal. Fac. for Micro threshold ....   0.100
   Minimum threshold for Micro iter.    ....   0.010
   NR start threshold (gradient norm)   ....   0.001
   Initial trust radius                 ....   0.400
   Minimum AH scaling param. (alpha)    ....   1.000
   Maximum AH scaling param. (alpha)    .... 1000.000
   Orbital update algorithm             .... Taylor
   White noise on init. David. guess    .... on
   Maximum white noise                  ....   0.010
   Quad. conv. algorithm                .... NR
 SOSCF                  CNVSOSCF        .... on
   Start iteration      SOSCFMaxIt      ....   150
   Startup grad/error   SOSCFStart      ....  0.003300
 Level Shifting         CNVShift        .... on
   Level shift para.    LevelShift      ....    0.2500
   Turn off err/grad.   ShiftErr        ....    0.0010
 Zerner damping         CNVZerner       .... off
 Static damping         CNVDamp         .... on
   Fraction old density DampFac         ....    0.7000
   Max. Damping (<1)    DampMax         ....    0.9800
   Min. Damping (>=0)   DampMin         ....    0.0000
   Turn off err/grad.   DampErr         ....    0.1000
 Fernandez-Rico         CNVRico         .... off

SCF Procedure:
 Maximum # iterations   MaxIter         ....   125
 SCF integral mode      SCFMode         .... Direct
   Integral package                     .... SHARK and LIBINT hybrid scheme
 Reset frequency        DirectResetFreq ....    20
 Integral Threshold     Thresh          ....  1.000e-10 Eh
 Primitive CutOff       TCut            ....  1.000e-11 Eh

Convergence Tolerance:
 Convergence Check Mode ConvCheckMode   .... Total+1el-Energy
 Convergence forced     ConvForced      .... 0
 Energy Change          TolE            ....  1.000e-06 Eh
 1-El. energy change                    ....  1.000e-03 Eh
 Orbital Gradient       TolG            ....  5.000e-05
 Orbital Rotation angle TolX            ....  5.000e-05
 DIIS Error             TolErr          ....  1.000e-06


Diagonalization of the overlap matrix:
Smallest eigenvalue                        ... 9.768e-03
Time for diagonalization                   ...    0.001 sec
Threshold for overlap eigenvalues          ... 1.000e-08
Number of eigenvalues below threshold      ... 0
Time for construction of square roots      ...    0.000 sec
Total time needed                          ...    0.001 sec

----------------------
SHARK INTEGRAL PACKAGE
----------------------

Number of atoms                             ...     20
Number of basis functions                   ...     60
Number of shells                            ...     40
Maximum angular momentum                    ...      1
Integral batch strategy                     ... SHARK/LIBINT Hybrid
RI-J (if used) integral strategy            ... SPLIT-RIJ (Revised 2003 algorithm where possible)
Printlevel                                  ...      2
Contraction scheme used                     ... SEGMENTED contraction
Coulomb Range Separation                    ... NOT USED
Exchange Range Separation                   ... NOT USED
Finite Nucleus Model                        ... NOT USED
Auxiliary Coulomb fitting basis             ... NOT available
Auxiliary J/K fitting basis                 ... NOT available
Auxiliary Correlation fitting basis         ... NOT available
Auxiliary 'external' fitting basis          ... NOT available
Integral threshold                          ...     1.000000e-10
Primitive cut-off                           ...     1.000000e-11
Primitive pair pre-selection threshold      ...     1.000000e-11

Time for model grid setup =    0.164 sec

------------------------------
INITIAL GUESS: MODEL POTENTIAL
------------------------------
Loading Hartree-Fock densities                     ... done
Calculating cut-offs                               ... done
Initializing the effective Hamiltonian             ... done
Setting up the integral package (SHARK)            ... done
Starting the Coulomb interaction                   ...     -> Generating integrals - 
    -> L=0 0 :     0.019 sec done=     63100 skipped=      1180 prim-skipped=         0
    -> L=1 0 :     0.021 sec done=     45680 skipped=       530 prim-skipped=         0
    -> L=1 1 :     0.007 sec done=      8740 skipped=        30 prim-skipped=         0
done (   0.0 sec)
Reading the grid                                   ... done
Mapping shells                                     ... done
Starting the XC term evaluation                    ... done (   0.1 sec)
Transforming the Hamiltonian                       ... done (   0.0 sec)
Diagonalizing the Hamiltonian                      ... done (   0.0 sec)
Back transforming the eigenvectors                 ... done (   0.0 sec)
Now organizing SCF variables                       ... done
                      ------------------
                      INITIAL GUESS DONE (   0.3 sec)
                      ------------------
--------------
SCF ITERATIONS
--------------
               ***  Starting incremental Fock matrix formation  ***
===> SHARK/Fock/General/Sym: HFTyp=1 DoJ=1 DoX=1 facj= 2.000 facx=-0.500 NFock=1 NumOp=1 NMat=1 RangeSep=0 GeneralContraction=0 PGCOpt=0
    -> L=0 0 0 0:     0.035 sec done=     62802 (= 86.1%) skipped=     10126 
    -> L=1 0 0 0:     0.101 sec done=     96229 (= 89.0%) skipped=     11938 
    -> L=1 0 1 0:     0.075 sec done=     36925 (= 92.3%) skipped=      3059 
    -> L=1 1 0 0:     0.039 sec done=     19976 (= 93.5%) skipped=      1378 
    -> L=1 1 1 0:     0.067 sec done=     14882 (= 95.9%) skipped=       634 
    -> L=1 1 1 1:     0.018 sec done=      1483 (= 97.8%) skipped=        33 
    -> RHF LowL loop time =     0.334 sec
    ->Total SHARK integral loop time =    0.000 sec
    ->Total LIBINT loop time =    0.006 sec

                         ----------------------------
                         !        ITERATION     0   !
                         ----------------------------
   Total Energy        :    -375.624690790466 Eh
   Energy Change       :    -375.624690790466 Eh
   MAX-DP              :       0.185178804086
   RMS-DP              :       0.005773553132
   Actual Damping      :       0.7000
   Actual Level Shift  :       0.2500 Eh

===> SHARK/Fock/General/Sym: HFTyp=1 DoJ=1 DoX=1 facj= 2.000 facx=-0.500 NFock=1 NumOp=1 NMat=1 RangeSep=0 GeneralContraction=0 PGCOpt=0
    -> L=0 0 0 0:     0.033 sec done=     52939 (= 72.6%) skipped=     19989 
    -> L=1 0 0 0:     0.097 sec done=     83911 (= 77.6%) skipped=     24256 
    -> L=1 0 1 0:     0.073 sec done=     33173 (= 83.0%) skipped=      6811 
    -> L=1 1 0 0:     0.037 sec done=     18363 (= 86.0%) skipped=      2991 
    -> L=1 1 1 0:     0.065 sec done=     13879 (= 89.4%) skipped=      1637 
    -> L=1 1 1 1:     0.018 sec done=      1430 (= 94.3%) skipped=        86 
    -> RHF LowL loop time =     0.322 sec
    ->Total SHARK integral loop time =    0.000 sec
    ->Total LIBINT loop time =    0.000 sec

                         ----------------------------
                         !        ITERATION     1   !
                         ----------------------------
   Total Energy        :    -375.684824043179 Eh
   Energy Change       :      -0.060133252713 Eh
   MAX-DP              :       0.132803772143
   RMS-DP              :       0.004615298589
   Actual Damping      :       0.7000
   Actual Level Shift  :       0.2500 Eh

===> SHARK/Fock/General/Sym: HFTyp=1 DoJ=1 DoX=1 facj= 2.000 facx=-0.500 NFock=1 NumOp=1 NMat=1 RangeSep=0 GeneralContraction=0 PGCOpt=0
    -> L=0 0 0 0:     0.032 sec done=     52375 (= 71.8%) skipped=     20553 
    -> L=1 0 0 0:     0.096 sec done=     83110 (= 76.8%) skipped=     25057 
    -> L=1 0 1 0:     0.074 sec done=     33035 (= 82.6%) skipped=      6949 
    -> L=1 1 0 0:     0.037 sec done=     18339 (= 85.9%) skipped=      3015 
    -> L=1 1 1 0:     0.065 sec done=     13874 (= 89.4%) skipped=      1642 
    -> L=1 1 1 1:     0.018 sec done=      1430 (= 94.3%) skipped=        86 
    -> RHF LowL loop time =     0.323 sec
    ->Total SHARK integral loop time =    0.000 sec
    ->Total LIBINT loop time =    0.000 sec
                               ***Turning on DIIS***

                         ----------------------------
                         !        ITERATION     2   !
                         ----------------------------
   Total Energy        :    -375.726987941303 Eh
   Energy Change       :      -0.042163898124 Eh
   MAX-DP              :       0.283610172690
   RMS-DP              :       0.010632798062
   Actual Damping      :       0.0000
   Actual Level Shift  :       0.2500 Eh
   DIIS-Error          :       0.087267258370

===> SHARK/Fock/General/Sym: HFTyp=1 DoJ=1 DoX=1 facj= 2.000 facx=-0.500 NFock=1 NumOp=1 NMat=1 RangeSep=0 GeneralContraction=0 PGCOpt=0
    -> L=0 0 0 0:     0.033 sec done=     55080 (= 75.5%) skipped=     17848 
    -> L=1 0 0 0:     0.098 sec done=     87012 (= 80.4%) skipped=     21155 
    -> L=1 0 1 0:     0.074 sec done=     34027 (= 85.1%) skipped=      5957 
    -> L=1 1 0 0:     0.038 sec done=     18886 (= 88.4%) skipped=      2468 
    -> L=1 1 1 0:     0.065 sec done=     14189 (= 91.4%) skipped=      1327 
    -> L=1 1 1 1:     0.018 sec done=      1449 (= 95.6%) skipped=        67 
    -> RHF LowL loop time =     0.326 sec
    ->Total SHARK integral loop time =    0.000 sec
    ->Total LIBINT loop time =    0.000 sec

                         ----------------------------
                         !        ITERATION     3   !
                         ----------------------------
   Total Energy        :    -375.762249286249 Eh
   Energy Change       :      -0.035261344946 Eh
   MAX-DP              :       0.067252545541
   RMS-DP              :       0.002039342172
   Actual Damping      :       0.0000
   Actual Level Shift  :       0.2500 Eh
   DIIS-Error          :       0.031190152756
   DIIS coefficients:
      0.05235   0.94765

===> SHARK/Fock/General/Sym: HFTyp=1 DoJ=1 DoX=1 facj= 2.000 facx=-0.500 NFock=1 NumOp=1 NMat=1 RangeSep=0 GeneralContraction=0 PGCOpt=0
    -> L=0 0 0 0:     0.032 sec done=     49549 (= 67.9%) skipped=     23379 
    -> L=1 0 0 0:     0.094 sec done=     78982 (= 73.0%) skipped=     29185 
    -> L=1 0 1 0:     0.073 sec done=     31988 (= 80.0%) skipped=      7996 
    -> L=1 1 0 0:     0.037 sec done=     18024 (= 84.4%) skipped=      3330 
    -> L=1 1 1 0:     0.064 sec done=     13704 (= 88.3%) skipped=      1812 
    -> L=1 1 1 1:     0.018 sec done=      1402 (= 92.5%) skipped=       114 
    -> RHF LowL loop time =     0.318 sec
    ->Total SHARK integral loop time =    0.000 sec
    ->Total LIBINT loop time =    0.000 sec

                         ----------------------------
                         !        ITERATION     4   !
                         ----------------------------
   Total Energy        :    -375.851369084924 Eh
   Energy Change       :      -0.089119798675 Eh
   MAX-DP              :       0.008144683211
   RMS-DP              :       0.000471569028
   Actual Damping      :       0.0000
   Actual Level Shift  :       0.2500 Eh
   DIIS-Error          :       0.006095283338
   DIIS coefficients:
     -0.02116  -0.03703   1.05818

===> SHARK/Fock/General/Sym: HFTyp=1 DoJ=1 DoX=1 facj= 2.000 facx=-0.500 NFock=1 NumOp=1 NMat=1 RangeSep=0 GeneralContraction=0 PGCOpt=0
    -> L=0 0 0 0:     0.031 sec done=     46207 (= 63.4%) skipped=     26721 
    -> L=1 0 0 0:     0.092 sec done=     75000 (= 69.3%) skipped=     33167 
    -> L=1 0 1 0:     0.071 sec done=     30836 (= 77.1%) skipped=      9148 
    -> L=1 1 0 0:     0.037 sec done=     17505 (= 82.0%) skipped=      3849 
    -> L=1 1 1 0:     0.064 sec done=     13421 (= 86.5%) skipped=      2095 
    -> L=1 1 1 1:     0.018 sec done=      1389 (= 91.6%) skipped=       127 
    -> RHF LowL loop time =     0.313 sec
    ->Total SHARK integral loop time =    0.000 sec
    ->Total LIBINT loop time =    0.000 sec
                      *** Initiating the SOSCF procedure ***
                           *** Shutting down DIIS ***
                      *** Re-Reading the Fockian *** 
                      *** Removing any level shift *** 

                         ----------------------------
                         !        ITERATION     5   !
                         ----------------------------
   Total Energy        :    -375.830345329715 Eh
   Energy Change       :       0.021023755209 Eh
   MAX-DP              :       0.005975068938
   RMS-DP              :       0.000287259585
   Orbital gradient    :       0.002417956974
   Orbital Rotation    :       0.002417956974
   Actual Damping      :       0.0000

               *** Restarting incremental Fock matrix formation ***
===> SHARK/Fock/General/Sym: HFTyp=1 DoJ=1 DoX=1 facj= 2.000 facx=-0.500 NFock=1 NumOp=1 NMat=1 RangeSep=0 GeneralContraction=0 PGCOpt=0
    -> L=0 0 0 0:     0.035 sec done=     62836 (= 86.2%) skipped=     10092 
    -> L=1 0 0 0:     0.101 sec done=     96186 (= 88.9%) skipped=     11981 
    -> L=1 0 1 0:     0.075 sec done=     36864 (= 92.2%) skipped=      3120 
    -> L=1 1 0 0:     0.038 sec done=     19927 (= 93.3%) skipped=      1427 
    -> L=1 1 1 0:     0.066 sec done=     14857 (= 95.8%) skipped=       659 
    -> L=1 1 1 1:     0.018 sec done=      1484 (= 97.9%) skipped=        32 
    -> RHF LowL loop time =     0.334 sec
    ->Total SHARK integral loop time =    0.000 sec
    ->Total LIBINT loop time =    0.000 sec

                         ----------------------------
                         !        ITERATION     6   !
                         ----------------------------
   Total Energy        :    -375.825042558297 Eh
   Energy Change       :       0.005302771418 Eh
   MAX-DP              :       0.002477440358
   RMS-DP              :       0.000116568051
   Orbital gradient    :       0.000772735427
   Orbital Rotation    :       0.001545403919
   Actual Damping      :       0.0000

===> SHARK/Fock/General/Sym: HFTyp=1 DoJ=1 DoX=1 facj= 2.000 facx=-0.500 NFock=1 NumOp=1 NMat=1 RangeSep=0 GeneralContraction=0 PGCOpt=0
    -> L=0 0 0 0:     0.028 sec done=     39085 (= 53.6%) skipped=     33843 
    -> L=1 0 0 0:     0.086 sec done=     65116 (= 60.2%) skipped=     43051 
    -> L=1 0 1 0:     0.070 sec done=     28808 (= 72.0%) skipped=     11176 
    -> L=1 1 0 0:     0.036 sec done=     16679 (= 78.1%) skipped=      4675 
    -> L=1 1 1 0:     0.063 sec done=     12985 (= 83.7%) skipped=      2531 
    -> L=1 1 1 1:     0.018 sec done=      1358 (= 89.6%) skipped=       158 
    -> RHF LowL loop time =     0.300 sec
    ->Total SHARK integral loop time =    0.000 sec
    ->Total LIBINT loop time =    0.000 sec

                         ----------------------------
                         !        ITERATION     7   !
                         ----------------------------
   Total Energy        :    -375.825056942296 Eh
   Energy Change       :      -0.000014383999 Eh
   MAX-DP              :       0.001746433074
   RMS-DP              :       0.000093865037
   Orbital gradient    :       0.000275770852
   Orbital Rotation    :       0.001124345370
   Actual Damping      :       0.0000

===> SHARK/Fock/General/Sym: HFTyp=1 DoJ=1 DoX=1 facj= 2.000 facx=-0.500 NFock=1 NumOp=1 NMat=1 RangeSep=0 GeneralContraction=0 PGCOpt=0
    -> L=0 0 0 0:     0.028 sec done=     38677 (= 53.0%) skipped=     34251 
    -> L=1 0 0 0:     0.085 sec done=     64184 (= 59.3%) skipped=     43983 
    -> L=1 0 1 0:     0.069 sec done=     28286 (= 70.7%) skipped=     11698 
    -> L=1 1 0 0:     0.036 sec done=     16446 (= 77.0%) skipped=      4908 
    -> L=1 1 1 0:     0.063 sec done=     12883 (= 83.0%) skipped=      2633 
    -> L=1 1 1 1:     0.017 sec done=      1349 (= 89.0%) skipped=       167 
    -> RHF LowL loop time =     0.299 sec
    ->Total SHARK integral loop time =    0.000 sec
    ->Total LIBINT loop time =    0.000 sec

                         ----------------------------
                         !        ITERATION     8   !
                         ----------------------------
   Total Energy        :    -375.825060101987 Eh
   Energy Change       :      -0.000003159691 Eh
   MAX-DP              :       0.000268464891
   RMS-DP              :       0.000012902071
   Orbital gradient    :       0.000070612770
   Orbital Rotation    :       0.000141400703
   Actual Damping      :       0.0000

===> SHARK/Fock/General/Sym: HFTyp=1 DoJ=1 DoX=1 facj= 2.000 facx=-0.500 NFock=1 NumOp=1 NMat=1 RangeSep=0 GeneralContraction=0 PGCOpt=0
    -> L=0 0 0 0:     0.025 sec done=     32453 (= 44.5%) skipped=     40475 
    -> L=1 0 0 0:     0.078 sec done=     55141 (= 51.0%) skipped=     53026 
    -> L=1 0 1 0:     0.064 sec done=     24567 (= 61.4%) skipped=     15417 
    -> L=1 1 0 0:     0.034 sec done=     14433 (= 67.6%) skipped=      6921 
    -> L=1 1 1 0:     0.062 sec done=     11791 (= 76.0%) skipped=      3725 
    -> L=1 1 1 1:     0.017 sec done=      1285 (= 84.8%) skipped=       231 
    -> RHF LowL loop time =     0.281 sec
    ->Total SHARK integral loop time =    0.000 sec
    ->Total LIBINT loop time =    0.000 sec
                 **** Energy Check signals convergence ****
              ***Rediagonalizing the Fockian in SOSCF/NRSCF***

               *****************************************************
               *                     SUCCESS                       *
               *           SCF CONVERGED AFTER   9 CYCLES          *
               *****************************************************


----------------
TOTAL SCF ENERGY
----------------

Total Energy       :         -375.82506020 Eh          -10226.71980 eV

Components:
Nuclear Repulsion  :          465.08901824 Eh           12655.71559 eV
Electronic Energy  :         -840.91407844 Eh          -22882.43540 eV
One Electron Energy:        -1427.57398295 Eh          -38846.26298 eV
Two Electron Energy:          586.65990451 Eh           15963.82759 eV

Virial components:
Potential Energy   :         -754.76590186 Eh          -20538.22433 eV
Kinetic Energy     :          378.94084165 Eh           10311.50453 eV
Virial Ratio       :            1.99177766


---------------
SCF CONVERGENCE
---------------

  Last Energy change         ...   -9.9406e-08  Tolerance :   1.0000e-06
  Last MAX-Density change    ...    9.5153e-05  Tolerance :   1.0000e-05
  Last RMS-Density change    ...    5.7054e-06  Tolerance :   1.0000e-06
  Last Orbital Gradient      ...    2.8103e-05  Tolerance :   5.0000e-05
  Last Orbital Rotation      ...    6.1920e-05  Tolerance :   5.0000e-05

             **** THE GBW FILE WAS UPDATED (dvb_scan_unrelaxed.gbw) ****
             **** DENSITY dvb_scan_unrelaxed.scfp WAS UPDATED ****
             **** ENERGY FILE WAS UPDATED (dvb_scan_unrelaxed.en.tmp) ****
             **** THE GBW FILE WAS UPDATED (dvb_scan_unrelaxed.gbw) ****
             **** DENSITY dvb_scan_unrelaxed.scfp WAS UPDATED ****
----------------
ORBITAL ENERGIES
----------------

  NO   OCC          E(Eh)            E(eV) 
   0   2.0000     -11.690542      -318.1158 
   1   2.0000     -11.061703      -301.0042 
   2   2.0000     -11.053737      -300.7875 
   3   2.0000     -11.051790      -300.7345 
   4   2.0000     -11.048827      -300.6539 
   5   2.0000     -11.042087      -300.4705 
   6   2.0000     -11.042063      -300.4698 
   7   2.0000     -11.040729      -300.4335 
   8   2.0000     -11.040423      -300.4252 
   9   2.0000     -11.029457      -300.1268 
  10   2.0000      -1.237779       -33.6817 
  11   2.0000      -1.122493       -30.5446 
  12   2.0000      -1.027626       -27.9631 
  13   2.0000      -0.976653       -26.5761 
  14   2.0000      -0.947280       -25.7768 
  15   2.0000      -0.815714       -22.1967 
  16   2.0000      -0.793365       -21.5886 
  17   2.0000      -0.730781       -19.8856 
  18   2.0000      -0.713717       -19.4212 
  19   2.0000      -0.668899       -18.2017 
  20   2.0000      -0.651748       -17.7350 
  21   2.0000      -0.608895       -16.5689 
  22   2.0000      -0.588385       -16.0108 
  23   2.0000      -0.573277       -15.5996 
  24   2.0000      -0.551151       -14.9976 
  25   2.0000      -0.534113       -14.5340 
  26   2.0000      -0.497202       -13.5295 
  27   2.0000      -0.489197       -13.3117 
  28   2.0000      -0.452311       -12.3080 
  29   2.0000      -0.437682       -11.9099 
  30   2.0000      -0.426546       -11.6069 
  31   2.0000      -0.362402        -9.8615 
  32   2.0000      -0.297283        -8.0895 
  33   2.0000      -0.263855        -7.1799 
  34   2.0000      -0.257373        -7.0035 
  35   0.0000       0.181246         4.9320 
  36   0.0000       0.256140         6.9699 
  37   0.0000       0.294733         8.0201 
  38   0.0000       0.395083        10.7508 
  39   0.0000       0.530159        14.4263 
  40   0.0000       0.532641        14.4939 
  41   0.0000       0.552598        15.0370 
  42   0.0000       0.574141        15.6232 
  43   0.0000       0.603654        16.4263 
  44   0.0000       0.631213        17.1762 
  45   0.0000       0.660263        17.9667 
  46   0.0000       0.681109        18.5339 
  47   0.0000       0.693954        18.8834 
  48   0.0000       0.714166        19.4334 
  49   0.0000       0.766653        20.8617 
  50   0.0000       0.803925        21.8759 
  51   0.0000       0.847814        23.0702 
  52   0.0000       0.862571        23.4717 
  53   0.0000       0.909985        24.7620 
  54   0.0000       0.928334        25.2613 
  55   0.0000       0.961265        26.1573 
  56   0.0000       1.011093        27.5132 
  57   0.0000       1.128995        30.7215 
  58   0.0000       1.160248        31.5719 
  59   0.0000       3.890372       105.8624 
------------------
MOLECULAR ORBITALS
------------------
                      0         1         2         3         4         5   
                 -11.69054 -11.06170 -11.05374 -11.05179 -11.04883 -11.04209
                   2.00000   2.00000   2.00000   2.00000   2.00000   2.00000
                  --------  --------  --------  --------  --------  --------
  0C   1s         0.000001  0.991993 -0.003523 -0.002738  0.003023  0.010145
  0C   2s         0.000010  0.036817 -0.000321 -0.000302  0.000054  0.007625
  0C   1pz        0.000000 -0.000000  0.000000  0.000000 -0.000000  0.000000
  0C   1px        0.000009  0.000310  0.000055  0.000019 -0.000086 -0.002185
  0C   1py        0.000022  0.001019  0.000057  0.000059 -0.000168  0.003987
  1C   1s         0.000010  0.006949  0.003479 -0.013990 -0.004934  0.016459
  1C   2s        -0.000264 -0.006996  0.000161  0.006697  0.000599  0.000265
  1C   1pz       -0.000000  0.000000 -0.000000 -0.000000 -0.000000  0.000000
  1C   1px       -0.000092  0.004504 -0.000165  0.002122  0.000288  0.000107
  1C   1py       -0.000154 -0.000113  0.000159  0.003931  0.000288  0.000099
  2C   1s        -0.000048 -0.002463  0.013506 -0.989295 -0.072462 -0.003390
  2C   2s        -0.000315  0.000168  0.000407 -0.036004 -0.010327 -0.000065
  2C   1pz       -0.000000 -0.000000 -0.000000  0.000000  0.000000 -0.000000
  2C   1px       -0.000296  0.000020 -0.000101  0.001239  0.002477 -0.000182
  2C   1py       -0.001114 -0.000041  0.000050 -0.000021 -0.003968  0.000072
  3C   1s        -0.000091 -0.003184 -0.027139 -0.073516  0.988774 -0.000050
  3C   2s        -0.000074 -0.000168  0.006096  0.004894  0.037909 -0.001732
  3C   1pz       -0.000000  0.000000  0.000000 -0.000000 -0.000000 -0.000000
  3C   1px       -0.000203  0.000089 -0.004503  0.002153 -0.000129 -0.000523
  3C   1py        0.000126  0.000186 -0.000058 -0.003905 -0.001266 -0.000815
  4C   1s        -0.000004 -0.003531 -0.991665 -0.011681 -0.027273  0.012844
  4C   2s        -0.000079  0.000086 -0.035989 -0.000179 -0.008256  0.007589
  4C   1pz       -0.000000 -0.000000 -0.000000 -0.000000  0.000000  0.000000
  4C   1px       -0.000119 -0.000085 -0.000579  0.000282 -0.004540 -0.002121
  4C   1py       -0.000137  0.000052  0.001157 -0.000077  0.000133 -0.003891
  5H   1s         0.000035  0.000046  0.000050  0.000010 -0.000071 -0.000025
  6H   1s        -0.001510 -0.000071 -0.000007  0.006712  0.000633  0.000032
  7H   1s        -0.000073 -0.000076  0.006652  0.000170  0.000279 -0.000231
  8C   1s         0.000823 -0.000123  0.001219  0.004042 -0.015823  0.219407
  8C   2s        -0.016326 -0.000037  0.000032  0.000393 -0.006662  0.007364
  8C   1pz       -0.000000 -0.000000 -0.000000  0.000000  0.000000  0.000000
  8C   1px       -0.008932  0.000013 -0.000135 -0.000042  0.001991  0.001291
  8C   1py        0.003578  0.000025 -0.000023 -0.000247  0.003822 -0.001154
  9C   1s         0.976268 -0.000007 -0.000027 -0.000329  0.000353  0.000067
  9C   2s        -0.090396 -0.000027  0.000073 -0.001043  0.001942 -0.002257
  9C   1pz        0.000000  0.000000 -0.000000 -0.000000 -0.000000 -0.000000
  9C   1px        0.019926  0.000006 -0.000054  0.000319 -0.000583  0.001303
  9C   1py        0.018483  0.000004 -0.000037  0.000077 -0.000507  0.000328
 10H   1s        -0.001462  0.000008  0.000009 -0.000167 -0.000236  0.000050
 11H   1s         0.140615  0.000029 -0.000000  0.001223 -0.001767  0.000309
 12H   1s        -0.001150  0.000000  0.000008  0.000042 -0.000004 -0.000031
 13C   1s        -0.000000 -0.004538  0.000397  0.000495 -0.000224  0.015651
 13C   2s         0.000004 -0.006273  0.000111  0.000110 -0.000073  0.000266
 13C   1pz       -0.000000  0.000000  0.000000  0.000000 -0.000000 -0.000000
 13C   1px       -0.000000 -0.002142  0.000011  0.000060 -0.000023 -0.000120
 13C   1py        0.000003 -0.003675  0.000086  0.000045 -0.000040 -0.000006
 14H   1s        -0.000001  0.000090  0.000010  0.000003  0.000007 -0.000030
 15C   1s        -0.000000 -0.000552  0.000022  0.000110  0.000031  0.000861
 15C   2s         0.000001  0.000224  0.000008  0.000000  0.000003  0.000012
 15C   1pz       -0.000000  0.000000 -0.000000  0.000000  0.000000 -0.000000
 15C   1px        0.000000  0.000069 -0.000004  0.000012  0.000001  0.000030
 15C   1py       -0.000002  0.000081  0.000004  0.000012  0.000006  0.000013
 16H   1s        -0.000006 -0.000143 -0.000002  0.000014  0.000007 -0.000003
 17H   1s        -0.000001 -0.000039 -0.000001  0.000006  0.000001  0.000000
 18C   1s         0.000002  0.011088 -0.013677  0.003939 -0.004010 -0.967159
 18C   2s        -0.000050 -0.007199  0.006741  0.000318  0.000317 -0.036109
 18C   1pz        0.000000  0.000000  0.000000 -0.000000  0.000000 -0.000000
 18C   1px       -0.000011 -0.002364  0.002367  0.000242  0.000063 -0.001624
 18C   1py       -0.000028  0.003924  0.003801  0.000021  0.000196  0.000213
 19H   1s         0.000006  0.000023  0.000002  0.000039 -0.000056  0.006516
                      6         7         8         9        10        11   
                 -11.04206 -11.04073 -11.04042 -11.02946  -1.23778  -1.12249
                   2.00000   2.00000   2.00000   2.00000   2.00000   2.00000
                  --------  --------  --------  --------  --------  --------
  0C   1s        -0.002079 -0.005858 -0.005889 -0.000376 -0.004929  0.120378
  0C   2s        -0.001683  0.005405 -0.008127 -0.000443  0.011788 -0.302139
  0C   1pz        0.000000  0.000000 -0.000000  0.000000  0.000000 -0.000000
  0C   1px        0.000505 -0.002377 -0.004289  0.000161  0.002095 -0.020085
  0C   1py       -0.000924 -0.003696  0.000108  0.000136  0.002805 -0.041767
  1C   1s        -0.007355  0.080579  0.988574 -0.002566 -0.007337  0.102178
  1C   2s        -0.000333  0.002781  0.036554  0.000024  0.016918 -0.255895
  1C   1pz        0.000000  0.000000 -0.000000 -0.000000  0.000000  0.000000
  1C   1px       -0.000017 -0.000061 -0.000682 -0.000059  0.000761  0.040137
  1C   1py       -0.000137  0.000071  0.001224 -0.000190  0.006141 -0.046616
  2C   1s         0.003800 -0.001637 -0.013390 -0.000068 -0.021240  0.095395
  2C   2s         0.000416 -0.000570 -0.007772  0.000067  0.051606 -0.238581
  2C   1pz       -0.000000 -0.000000 -0.000000  0.000000 -0.000000 -0.000000
  2C   1px       -0.000065  0.000131  0.002426 -0.000028 -0.007857  0.060084
  2C   1py       -0.000095  0.000284  0.003800 -0.000041  0.013593 -0.000698
  3C   1s         0.017518  0.000010  0.004202  0.000021 -0.043422  0.092151
  3C   2s        -0.005460  0.000023  0.000493 -0.000001  0.100558 -0.230001
  3C   1pz       -0.000000 -0.000000  0.000000  0.000000  0.000000  0.000000
  3C   1px       -0.002917  0.000003  0.000129  0.000001  0.020325  0.025061
  3C   1py       -0.003288 -0.000024 -0.000070  0.000002  0.023661  0.055250
  4C   1s        -0.002030  0.000063  0.003054 -0.000014 -0.013019  0.092861
  4C   2s        -0.001731  0.000163 -0.000186  0.000006  0.031338 -0.233822
  4C   1pz       -0.000000 -0.000000  0.000000  0.000000 -0.000000 -0.000000
  4C   1px        0.000257 -0.000029 -0.000092 -0.000004  0.012907 -0.025814
  4C   1py        0.000962 -0.000101  0.000285 -0.000004 -0.001095  0.054363
  5H   1s         0.000020 -0.000394 -0.006738 -0.000201  0.002402 -0.044611
  6H   1s        -0.000253  0.000027  0.000183  0.000002  0.004076 -0.041286
  7H   1s        -0.000214  0.000003 -0.000086 -0.000000  0.005564 -0.037096
  8C   1s         0.968012  0.000042  0.003538  0.000002 -0.124871 -0.002502
  8C   2s         0.032043  0.000002  0.000003  0.000000  0.202972 -0.014769
  8C   1pz        0.000000 -0.000000  0.000000  0.000000  0.000000 -0.000000
  8C   1px        0.006007 -0.000002  0.000040  0.000000  0.118721  0.038631
  8C   1py       -0.004882  0.000000  0.000063 -0.000000 -0.039720  0.027080
  9C   1s         0.000313 -0.000001 -0.000005 -0.000000 -0.270518 -0.049560
  9C   2s        -0.009940 -0.000006 -0.000099 -0.000000  0.068276  0.022503
  9C   1pz       -0.000000  0.000000 -0.000000  0.000000  0.000000  0.000000
  9C   1px        0.005760  0.000002  0.000049 -0.000000 -0.220854 -0.038890
  9C   1py        0.001429  0.000002  0.000033 -0.000000 -0.111666 -0.018831
 10H   1s         0.000235 -0.000001 -0.000019  0.000000  0.052456  0.011757
 11H   1s         0.001302  0.000006  0.000078  0.000000  0.610072  0.107464
 12H   1s        -0.000137 -0.000000 -0.000007  0.000000  0.064727  0.014283
 13C   1s        -0.003805 -0.988333  0.080431  0.031699 -0.001076  0.051124
 13C   2s        -0.000079 -0.035419  0.003156  0.008847  0.002671 -0.130579
 13C   1pz       -0.000000  0.000000  0.000000 -0.000000  0.000000  0.000000
 13C   1px        0.000023 -0.000735  0.000051  0.002045  0.000684 -0.025837
 13C   1py       -0.000004  0.000867  0.000011 -0.004116  0.000927 -0.025294
 14H   1s         0.000009  0.006697 -0.000633 -0.000323  0.000405 -0.024301
 15C   1s        -0.000192 -0.032401  0.000111 -0.991752 -0.000384  0.025192
 15C   2s         0.000000  0.006453 -0.000730 -0.036125  0.000954 -0.064051
 15C   1pz       -0.000000  0.000000 -0.000000 -0.000000 -0.000000 -0.000000
 15C   1px       -0.000007 -0.001976  0.000027  0.000857 -0.000076  0.006399
 15C   1py       -0.000002  0.004031 -0.000454 -0.001425  0.000430 -0.023809
 16H   1s        -0.000001  0.000148  0.000230  0.006669  0.000197 -0.014349
 17H   1s        -0.000000  0.000112 -0.000044  0.006925  0.000111 -0.010431
 18C   1s         0.219095 -0.014721  0.018992 -0.000420 -0.005631  0.104443
 18C   2s         0.008118 -0.000660  0.001026  0.000080  0.013628 -0.259837
 18C   1pz        0.000000  0.000000 -0.000000 -0.000000  0.000000  0.000000
 18C   1px        0.000322 -0.000009  0.000019  0.000008  0.004415 -0.063835
 18C   1py       -0.000073 -0.000006 -0.000115 -0.000069  0.002077  0.014922
 19H   1s        -0.001480  0.000150 -0.000220  0.000007  0.001612 -0.044292
                     12        13        14        15        16        17   
                  -1.02763  -0.97665  -0.94728  -0.81571  -0.79336  -0.73078
                   2.00000   2.00000   2.00000   2.00000   2.00000   2.00000
                  --------  --------  --------  --------  --------  --------
  0C   1s         0.100483  0.022745 -0.084421 -0.082701  0.044919  0.027270
  0C   2s        -0.266066 -0.059199  0.227537  0.240244 -0.132633 -0.076200
  0C   1pz        0.000000 -0.000000  0.000000 -0.000000 -0.000000 -0.000000
  0C   1px        0.030651  0.107590  0.069043 -0.136883 -0.185436 -0.051099
  0C   1py        0.057593 -0.092527  0.080416 -0.044193  0.113844 -0.177041
  1C   1s         0.018080 -0.106277 -0.099712  0.076103  0.076045 -0.004722
  1C   2s        -0.049002  0.285014  0.269922 -0.217000 -0.222069  0.015418
  1C   1pz       -0.000000  0.000000 -0.000000  0.000000  0.000000  0.000000
  1C   1px        0.070597  0.054155 -0.046125 -0.085407  0.134965  0.087951
  1C   1py        0.054105  0.050835  0.014858 -0.008939  0.128302  0.000762
  2C   1s        -0.076730 -0.130503 -0.001976  0.002998 -0.114764 -0.026408
  2C   2s         0.199460  0.350462  0.005291 -0.009146  0.335319  0.083814
  2C   1pz        0.000000 -0.000000 -0.000000  0.000000  0.000000  0.000000
  2C   1px       -0.030643 -0.024546 -0.005862  0.013093  0.082149  0.039433
  2C   1py        0.061911 -0.035547 -0.123289  0.171474  0.048169 -0.061290
  3C   1s        -0.110732 -0.023381  0.107427 -0.080709  0.038917  0.016816
  3C   2s         0.289373  0.061638 -0.292972  0.234533 -0.117202 -0.051540
  3C   1pz       -0.000000 -0.000000 -0.000000  0.000000 -0.000000 -0.000000
  3C   1px       -0.008275  0.113998  0.024841  0.133020  0.145422 -0.118466
  3C   1py       -0.037630 -0.069524 -0.024053  0.042043 -0.163561 -0.048776
  4C   1s        -0.067399  0.114083  0.068368  0.086937  0.054417 -0.067694
  4C   2s         0.177468 -0.306879 -0.188986 -0.249365 -0.159341  0.207985
  4C   1pz        0.000000 -0.000000 -0.000000 -0.000000  0.000000  0.000000
  4C   1px        0.063742  0.059015 -0.076668  0.100657 -0.120375 -0.006692
  4C   1py        0.003030  0.066398 -0.039033  0.034328 -0.116868  0.084441
  5H   1s        -0.021267  0.079973  0.064047 -0.105694 -0.108451  0.023040
  6H   1s         0.045850  0.096874 -0.000401  0.000705  0.179198  0.066813
  7H   1s         0.037513 -0.077614 -0.054525 -0.098686 -0.081009  0.125479
  8C   1s        -0.012986  0.002182  0.028958 -0.050605  0.052255  0.058134
  8C   2s         0.055360  0.001375 -0.100062  0.169257 -0.165960 -0.174268
  8C   1pz        0.000000  0.000000 -0.000000  0.000000 -0.000000 -0.000000
  8C   1px       -0.048220 -0.011697  0.057724 -0.065246  0.046969  0.005941
  8C   1py       -0.049502 -0.019879  0.065211 -0.106294  0.025803  0.074900
  9C   1s         0.046757  0.019476 -0.043817  0.056794 -0.019397 -0.054358
  9C   2s        -0.033600 -0.016290  0.047804 -0.133567  0.067769  0.326064
  9C   1pz       -0.000000 -0.000000  0.000000 -0.000000  0.000000  0.000000
  9C   1px        0.033424  0.017252 -0.022910 -0.009876  0.045172  0.168647
  9C   1py        0.015769 -0.000461 -0.015603  0.000382 -0.044974  0.041985
 10H   1s        -0.013764 -0.001520  0.019636 -0.046198  0.060242  0.127917
 11H   1s        -0.094601 -0.038139  0.078166 -0.048080 -0.000737 -0.117217
 12H   1s        -0.016852 -0.008604  0.020392 -0.055664  0.017887  0.147599
 13C   1s         0.139184 -0.022565  0.094049 -0.057564 -0.010812 -0.104829
 13C   2s        -0.365709  0.059137 -0.252835  0.173481  0.031585  0.322803
 13C   1pz        0.000000 -0.000000  0.000000  0.000000 -0.000000  0.000000
 13C   1px       -0.051249  0.019797 -0.014335 -0.033015 -0.067827 -0.088004
 13C   1py        0.015495 -0.041541  0.130374  0.165528 -0.044580  0.071923
 14H   1s        -0.080888  0.006147 -0.066795  0.085141  0.052244  0.182600
 15C   1s         0.106274 -0.039246  0.133934  0.092301 -0.028432  0.087882
 15C   2s        -0.278383  0.104310 -0.362198 -0.267253  0.084133 -0.272497
 15C   1pz       -0.000000  0.000000 -0.000000 -0.000000  0.000000  0.000000
 15C   1px        0.030062 -0.004046  0.040206 -0.021192 -0.037625 -0.083547
 15C   1py       -0.075297  0.019430 -0.053679  0.051902 -0.025087  0.151541
 16H   1s        -0.064957  0.031099 -0.088421 -0.114184  0.000631 -0.165364
 17H   1s        -0.060666  0.025848 -0.103429 -0.117117  0.054479 -0.165175
 18C   1s         0.019732  0.140281 -0.041896  0.015145 -0.098453  0.049744
 18C   2s        -0.052580 -0.373727  0.111657 -0.043903  0.285221 -0.148656
 18C   1pz       -0.000000  0.000000 -0.000000 -0.000000  0.000000  0.000000
 18C   1px        0.005566 -0.035447  0.019243 -0.022934 -0.067794 -0.029253
 18C   1py        0.081997 -0.041292 -0.083573 -0.192721 -0.023561  0.098944
 19H   1s        -0.017717 -0.096995  0.025342 -0.002395  0.145351 -0.036369
                     18        19        20        21        22        23   
                  -0.71372  -0.66890  -0.65175  -0.60889  -0.58838  -0.57328
                   2.00000   2.00000   2.00000   2.00000   2.00000   2.00000
                  --------  --------  --------  --------  --------  --------
  0C   1s        -0.042828 -0.016756 -0.030239 -0.002543 -0.068979  0.028403
  0C   2s         0.125331  0.055532  0.098750  0.003371  0.231117 -0.096076
  0C   1pz       -0.000000 -0.000000 -0.000000  0.000000 -0.000000 -0.000000
  0C   1px        0.045760 -0.055958  0.054337 -0.059283 -0.131478 -0.284433
  0C   1py        0.092015 -0.061149 -0.098220  0.174002  0.027412 -0.047782
  1C   1s         0.040835 -0.004873  0.026693 -0.037883  0.051681  0.011409
  1C   2s        -0.131033  0.024063 -0.084398  0.125051 -0.174529 -0.032536
  1C   1pz       -0.000000  0.000000  0.000000 -0.000000 -0.000000  0.000000
  1C   1px       -0.158956  0.043285 -0.115254  0.094814 -0.011512  0.280539
  1C   1py        0.076915 -0.182071 -0.093411  0.029694  0.144018 -0.055970
  2C   1s         0.014648  0.007293  0.004858  0.034342 -0.047465  0.002273
  2C   2s        -0.050763 -0.015309 -0.013147 -0.110139  0.167150 -0.010984
  2C   1pz        0.000000 -0.000000  0.000000 -0.000000 -0.000000  0.000000
  2C   1px       -0.131119  0.183806  0.101336  0.014668  0.237528 -0.102878
  2C   1py        0.129712  0.044000  0.136096 -0.182229 -0.110855 -0.085891
  3C   1s        -0.042017 -0.024549  0.003288 -0.008544  0.051821 -0.029969
  3C   2s         0.121067  0.089089 -0.018866  0.031350 -0.173285  0.093774
  3C   1pz       -0.000000  0.000000  0.000000  0.000000 -0.000000 -0.000000
  3C   1px       -0.070482  0.129298  0.019473 -0.105074 -0.117743 -0.267354
  3C   1py       -0.144394  0.187565 -0.072400  0.201634  0.045562 -0.108589
  4C   1s         0.023228  0.021100 -0.029503  0.008546 -0.045725 -0.003104
  4C   2s        -0.077590 -0.058574  0.097086 -0.026941  0.157100  0.004458
  4C   1pz        0.000000 -0.000000 -0.000000 -0.000000 -0.000000  0.000000
  4C   1px        0.162503 -0.059406 -0.042128  0.135636  0.004019  0.288536
  4C   1py       -0.075554  0.114143  0.007544  0.110221  0.213647 -0.038467
  5H   1s        -0.143860  0.144352 -0.013392  0.059758 -0.185249  0.168433
  6H   1s        -0.097256  0.126392  0.095876 -0.018688  0.267967 -0.090049
  7H   1s        -0.120638  0.059919  0.056022  0.007936  0.215210 -0.140280
  8C   1s         0.059237 -0.038094  0.090448  0.002950 -0.004375  0.042147
  8C   2s        -0.165838  0.178681 -0.328575 -0.001270  0.003894 -0.172453
  8C   1pz       -0.000000  0.000000  0.000000  0.000000 -0.000000 -0.000000
  8C   1px       -0.010058 -0.147511  0.013343 -0.111575  0.048308  0.075461
  8C   1py        0.052546 -0.086348 -0.116157 -0.113173  0.117870  0.083715
  9C   1s        -0.059141  0.012689 -0.013896  0.000628  0.000265 -0.027787
  9C   2s         0.437799  0.313981 -0.108798  0.038441 -0.068222 -0.043982
  9C   1pz        0.000000  0.000000 -0.000000  0.000000 -0.000000 -0.000000
  9C   1px        0.242691  0.273178  0.086836  0.158277 -0.127755 -0.095123
  9C   1py        0.096609  0.137331 -0.487940 -0.266046  0.109207 -0.062578
 10H   1s         0.147808  0.107414  0.248551  0.196726 -0.097647 -0.014487
 11H   1s        -0.198060 -0.307447  0.148684 -0.025492  0.053698  0.126602
 12H   1s         0.214753  0.179175 -0.202642 -0.077803  0.000201 -0.047985
 13C   1s         0.032805  0.044769  0.008095  0.017728  0.017912 -0.000350
 13C   2s        -0.100401 -0.142647 -0.026947 -0.051646 -0.052452  0.004960
 13C   1pz       -0.000000 -0.000000 -0.000000  0.000000 -0.000000  0.000000
 13C   1px        0.043380  0.114824  0.141044 -0.250815  0.062257  0.021727
 13C   1py       -0.019144  0.083002  0.045254  0.005283  0.152240  0.168514
 14H   1s        -0.072920 -0.129703 -0.112803  0.169142 -0.077077  0.000212
 15C   1s        -0.031126 -0.016609  0.000928 -0.006342 -0.015332  0.000143
 15C   2s         0.097251  0.058215 -0.002553  0.025625  0.059296  0.009786
 15C   1pz        0.000000 -0.000000 -0.000000 -0.000000 -0.000000 -0.000000
 15C   1px        0.017040  0.144644  0.095020 -0.160461  0.080988  0.272456
 15C   1py       -0.055494 -0.049602  0.053300 -0.239423 -0.127588  0.002545
 16H   1s         0.043058  0.140580  0.066211 -0.096998  0.076158  0.242239
 17H   1s         0.065322  0.002980 -0.068854  0.235171  0.082282 -0.116351
 18C   1s         0.026987 -0.030870  0.020451  0.002009  0.046385 -0.002471
 18C   2s        -0.089068  0.105551 -0.064048 -0.009274 -0.160172  0.010133
 18C   1pz       -0.000000  0.000000  0.000000 -0.000000 -0.000000 -0.000000
 18C   1px        0.145497 -0.165893  0.051530  0.011513  0.179067 -0.069406
 18C   1py       -0.099334 -0.053217  0.060951 -0.184117 -0.163525 -0.137895
 19H   1s        -0.129557  0.152651 -0.069003 -0.007392 -0.223709  0.061039
                     24        25        26        27        28        29   
                  -0.55115  -0.53411  -0.49720  -0.48920  -0.45231  -0.43768
                   2.00000   2.00000   2.00000   2.00000   2.00000   2.00000
                  --------  --------  --------  --------  --------  --------
  0C   1s        -0.014371 -0.008066 -0.000000  0.017320  0.001471 -0.008228
  0C   2s         0.052385  0.027611  0.000000 -0.064792  0.006084  0.044458
  0C   1pz       -0.000000 -0.000000 -0.319694 -0.000000 -0.000000 -0.000000
  0C   1px        0.040380  0.018797  0.000000  0.007619  0.137336 -0.325341
  0C   1py       -0.168779 -0.108661 -0.000000  0.100235 -0.327321 -0.181951
  1C   1s        -0.012839  0.005152  0.000000 -0.007494 -0.002099  0.006757
  1C   2s         0.042065 -0.008551 -0.000000  0.023078 -0.002822 -0.020359
  1C   1pz       -0.000000  0.000000 -0.290101 -0.000000  0.000000 -0.000000
  1C   1px       -0.112359 -0.037117 -0.000000  0.017475 -0.119009  0.315361
  1C   1py        0.120366 -0.336520 -0.000000  0.166581  0.218415  0.061494
  2C   1s        -0.022389  0.012260  0.000000 -0.002136 -0.002929 -0.010342
  2C   2s         0.069325 -0.040909 -0.000000  0.001045  0.017793  0.027362
  2C   1pz        0.000000  0.000000 -0.302731 -0.000000 -0.000000 -0.000000
  2C   1px       -0.268529  0.135300  0.000000 -0.138379  0.087622 -0.223157
  2C   1py        0.092579  0.260274  0.000000 -0.068976 -0.236342 -0.099522
  3C   1s        -0.009597 -0.010877 -0.000000  0.022061  0.008763  0.004422
  3C   2s         0.025297  0.032982  0.000000 -0.070176 -0.023514 -0.008454
  3C   1pz       -0.000000 -0.000000 -0.341063 -0.000000  0.000000  0.000000
  3C   1px        0.063962  0.058583 -0.000000  0.226212 -0.160805  0.188316
  3C   1py       -0.181563 -0.152200 -0.000000  0.088777  0.172118  0.012274
  4C   1s         0.003828 -0.023383  0.000000  0.003665 -0.007451 -0.005715
  4C   2s        -0.005455  0.078884 -0.000000 -0.009680  0.014748  0.023577
  4C   1pz       -0.000000  0.000000 -0.286707 -0.000000  0.000000 -0.000000
  4C   1px       -0.099618 -0.043105  0.000000 -0.249764  0.105747 -0.211693
  4C   1py        0.288446 -0.169466  0.000000 -0.048782 -0.282164 -0.116865
  5H   1s        -0.121881  0.232120  0.000000 -0.072643 -0.271683  0.067206
  6H   1s        -0.205074  0.090305  0.000000 -0.133653  0.115938 -0.234240
  7H   1s         0.245297 -0.070012 -0.000000  0.074759 -0.292346  0.017315
  8C   1s         0.039140  0.022657  0.000000 -0.039195 -0.039461 -0.023062
  8C   2s        -0.153586 -0.091163 -0.000000  0.164296  0.160940  0.099081
  8C   1pz       -0.000000 -0.000000 -0.151739  0.000000 -0.000000  0.000000
  8C   1px        0.072098  0.087005 -0.000000 -0.085364 -0.088419 -0.048636
  8C   1py        0.033684  0.037558  0.000000 -0.105042  0.008753 -0.095950
  9C   1s        -0.019898 -0.003341 -0.000000  0.018512  0.012756  0.008171
  9C   2s        -0.005239 -0.024876 -0.000000  0.030841  0.000804  0.026129
  9C   1pz       -0.000000 -0.000000 -0.194170 -0.000000  0.000000  0.000000
  9C   1px       -0.042916 -0.075747 -0.000000  0.106801  0.038746  0.078771
  9C   1py       -0.023840  0.102932 -0.000000 -0.029384 -0.030720 -0.033626
 10H   1s        -0.016722 -0.081588  0.000000  0.048027  0.045797  0.027677
 11H   1s         0.067716  0.027626  0.000000 -0.085464 -0.040766 -0.048433
 12H   1s        -0.007932  0.033672 -0.000000  0.009431 -0.025362  0.007803
 13C   1s         0.017416  0.009175  0.000000 -0.012542 -0.012995 -0.019733
 13C   2s        -0.049649 -0.016691 -0.000000  0.054699  0.058290  0.073609
 13C   1pz        0.000000  0.000000 -0.142799 -0.000000  0.000000 -0.000000
 13C   1px       -0.047887 -0.217438  0.000000 -0.251378  0.037397  0.269826
 13C   1py        0.191569  0.218077 -0.000000  0.093376  0.235002  0.188406
 14H   1s         0.036024  0.189523 -0.000000  0.273794  0.014111 -0.256497
 15C   1s        -0.000478  0.021704 -0.000000  0.006437  0.009126  0.000742
 15C   2s         0.012492 -0.061030  0.000000 -0.011701 -0.023501 -0.000850
 15C   1pz       -0.000000 -0.000000 -0.082006 -0.000000  0.000000 -0.000000
 15C   1px        0.042264 -0.007149 -0.000000  0.358373  0.069997 -0.163633
 15C   1py       -0.226530 -0.315632  0.000000 -0.001617 -0.166975 -0.088482
 16H   1s         0.041402  0.013960 -0.000000  0.335058  0.027178 -0.182240
 17H   1s         0.155367  0.212921  0.000000 -0.192459  0.099915  0.178034
 18C   1s         0.035455  0.011004 -0.000000  0.002831  0.007993 -0.004105
 18C   2s        -0.110359 -0.040175  0.000000 -0.020829 -0.018786  0.007618
 18C   1pz        0.000000 -0.000000 -0.292105 -0.000000  0.000000 -0.000000
 18C   1px       -0.321235  0.134481 -0.000000  0.195783 -0.126426  0.187544
 18C   1py       -0.022028  0.142351 -0.000000  0.098457  0.318021  0.095551
 19H   1s         0.221152 -0.131120  0.000000 -0.184086  0.125703 -0.218833
                     30        31        32        33        34        35   
                  -0.42655  -0.36240  -0.29728  -0.26385  -0.25737   0.18125
                   2.00000   2.00000   2.00000   2.00000   2.00000   0.00000
                  --------  --------  --------  --------  --------  --------
  0C   1s        -0.000000  0.000000 -0.000000  0.000000  0.002316 -0.000000
  0C   2s         0.000000 -0.000000  0.000000 -0.000000 -0.010947  0.000000
  0C   1pz        0.265855  0.208720  0.043978  0.382203 -0.000000 -0.468886
  0C   1px       -0.000000  0.000000 -0.000000 -0.000000 -0.020313  0.000000
  0C   1py       -0.000000  0.000000  0.000000  0.000000  0.006930  0.000000
  1C   1s         0.000000  0.000000  0.000000  0.000000  0.010706 -0.000000
  1C   2s        -0.000000 -0.000000 -0.000000 -0.000000 -0.042212  0.000000
  1C   1pz        0.147795 -0.027986 -0.423377  0.341581 -0.000000  0.242617
  1C   1px        0.000000  0.000000 -0.000000 -0.000000 -0.014852  0.000000
  1C   1py        0.000000 -0.000000 -0.000000 -0.000000 -0.071307  0.000000
  2C   1s        -0.000000  0.000000  0.000000 -0.000000 -0.018958  0.000000
  2C   2s         0.000000 -0.000000 -0.000000  0.000000  0.077379 -0.000000
  2C   1pz       -0.013448 -0.250169 -0.461751 -0.082871  0.000000  0.290242
  2C   1px       -0.000000  0.000000  0.000000 -0.000000 -0.084566  0.000000
  2C   1py       -0.000000  0.000000 -0.000000  0.000000  0.144882 -0.000000
  3C   1s         0.000000 -0.000000 -0.000000  0.000000  0.029522 -0.000000
  3C   2s        -0.000000  0.000000  0.000000 -0.000000 -0.123831  0.000000
  3C   1pz       -0.149228 -0.318348 -0.035718 -0.414044  0.000000 -0.419884
  3C   1px        0.000000  0.000000  0.000000 -0.000000 -0.056402  0.000000
  3C   1py        0.000000 -0.000000 -0.000000 -0.000000 -0.209947  0.000000
  4C   1s         0.000000 -0.000000  0.000000  0.000000  0.012681 -0.000000
  4C   2s        -0.000000  0.000000  0.000000 -0.000000 -0.056115  0.000000
  4C   1pz        0.008256 -0.209693  0.441185 -0.215483  0.000000  0.334416
  4C   1px       -0.000000  0.000000  0.000000 -0.000000 -0.051180  0.000000
  4C   1py       -0.000000  0.000000 -0.000000 -0.000000 -0.000231  0.000000
  5H   1s         0.000000  0.000000  0.000000  0.000000  0.062844 -0.000000
  6H   1s        -0.000000 -0.000000 -0.000000  0.000000  0.005322 -0.000000
  7H   1s         0.000000  0.000000  0.000000  0.000000  0.043964 -0.000000
  8C   1s        -0.000000 -0.000000  0.000000 -0.000000 -0.122845  0.000000
  8C   2s         0.000000  0.000000 -0.000000  0.000000  0.588532 -0.000000
  8C   1pz       -0.339618  0.097867  0.006707 -0.025554 -0.000000 -0.428580
  8C   1px       -0.000000  0.000000  0.000000 -0.000000 -0.291506  0.000000
  8C   1py        0.000000  0.000000 -0.000000  0.000000  0.683083 -0.000000
  9C   1s        -0.000000  0.000000 -0.000000  0.000000  0.050578 -0.000000
  9C   2s        -0.000000  0.000000  0.000000  0.000000  0.027879  0.000000
  9C   1pz       -0.688931  0.400165  0.033293  0.231355 -0.000000  0.331620
  9C   1px        0.000000  0.000000  0.000000  0.000000  0.098930 -0.000000
  9C   1py       -0.000000  0.000000 -0.000000 -0.000000 -0.130457  0.000000
 10H   1s         0.000000  0.000000 -0.000000  0.000000  0.279843 -0.000000
 11H   1s         0.000000 -0.000000  0.000000 -0.000000 -0.187711  0.000000
 12H   1s         0.000000 -0.000000  0.000000 -0.000000 -0.234436  0.000000
 13C   1s        -0.000000  0.000000  0.000000  0.000000  0.000975  0.000000
 13C   2s         0.000000 -0.000000 -0.000000 -0.000000 -0.004459 -0.000000
 13C   1pz        0.201242  0.467128 -0.070619 -0.335520  0.000000 -0.216580
 13C   1px        0.000000  0.000000 -0.000000 -0.000000 -0.001373 -0.000000
 13C   1py        0.000000  0.000000 -0.000000 -0.000000 -0.005582 -0.000000
 14H   1s        -0.000000  0.000000 -0.000000 -0.000000 -0.002531  0.000000
 15C   1s         0.000000  0.000000  0.000000  0.000000  0.001223 -0.000000
 15C   2s        -0.000000 -0.000000 -0.000000 -0.000000 -0.005212  0.000000
 15C   1pz        0.142274  0.412567 -0.084706 -0.449430  0.000000  0.392018
 15C   1px       -0.000000  0.000000 -0.000000 -0.000000 -0.012032  0.000000
 15C   1py       -0.000000  0.000000  0.000000  0.000000  0.001737 -0.000000
 16H   1s        -0.000000 -0.000000 -0.000000 -0.000000 -0.005066  0.000000
 17H   1s         0.000000  0.000000  0.000000  0.000000  0.003977 -0.000000
 18C   1s        -0.000000  0.000000  0.000000 -0.000000 -0.000673 -0.000000
 18C   2s         0.000000 -0.000000 -0.000000  0.000000  0.001784  0.000000
 18C   1pz        0.167530  0.006522  0.494386  0.209932 -0.000000  0.214729
 18C   1px        0.000000 -0.000000 -0.000000  0.000000  0.007115  0.000000
 18C   1py        0.000000 -0.000000 -0.000000 -0.000000 -0.014445  0.000000
 19H   1s        -0.000000  0.000000 -0.000000 -0.000000 -0.009092 -0.000000
                     36        37        38        39        40        41   
                   0.25614   0.29473   0.39508   0.53016   0.53264   0.55260
                   0.00000   0.00000   0.00000   0.00000   0.00000   0.00000
                  --------  --------  --------  --------  --------  --------
  0C   1s         0.000000 -0.000000  0.000000  0.000000  0.018925 -0.034499
  0C   2s        -0.000000  0.000000 -0.000000 -0.000000 -0.110325  0.213630
  0C   1pz       -0.004889  0.071648 -0.505943  0.547417 -0.000000  0.000000
  0C   1px       -0.000000  0.000000 -0.000000 -0.000000 -0.026750 -0.159037
  0C   1py        0.000000  0.000000  0.000000  0.000000  0.095477 -0.149898
  1C   1s        -0.000000 -0.000000  0.000000 -0.000000 -0.014322 -0.056015
  1C   2s         0.000000  0.000000 -0.000000  0.000000  0.076312  0.343455
  1C   1pz       -0.585757 -0.191081  0.190339 -0.474598  0.000000 -0.000000
  1C   1px        0.000000  0.000000 -0.000000 -0.000000 -0.014522  0.096846
  1C   1py        0.000000  0.000000 -0.000000  0.000000  0.184591 -0.138081
  2C   1s         0.000000  0.000000  0.000000  0.000000  0.089507 -0.024809
  2C   2s        -0.000000 -0.000000 -0.000000 -0.000000 -0.545335  0.159407
  2C   1pz        0.593697  0.153881  0.195136  0.484592 -0.000000  0.000000
  2C   1px        0.000000  0.000000 -0.000000 -0.000000 -0.234815  0.207660
  2C   1py       -0.000000 -0.000000  0.000000 -0.000000 -0.048385  0.051034
  3C   1s        -0.000000 -0.000000  0.000000 -0.000000 -0.018550 -0.073013
  3C   2s         0.000000  0.000000 -0.000000  0.000000  0.111197  0.436675
  3C   1pz       -0.009089  0.022926 -0.496430 -0.555987  0.000000 -0.000000
  3C   1px        0.000000  0.000000 -0.000000  0.000000  0.104473  0.171583
  3C   1py        0.000000  0.000000 -0.000000 -0.000000 -0.053658  0.376718
  4C   1s        -0.000000 -0.000000  0.000000 -0.000000 -0.006130 -0.038609
  4C   2s         0.000000  0.000000 -0.000000  0.000000  0.037481  0.243227
  4C   1pz       -0.548637  0.255496  0.168495  0.478315 -0.000000  0.000000
[...]
  4   -379.1083357867  -0.033965993909 0.16668564  0.00806185  0.0830257 0.0000
  5   -379.1553923208  -0.047056534157 0.05950606  0.00194484  0.0308473 0.0000
  6   -379.1560900798  -0.000697758958 0.06317377  0.00192804  0.0192379 0.0000
  7   -379.1631172260  -0.007027146194 0.05528748  0.00176034  0.0129761 0.0000
  8   -379.1609125406   0.002204685404 0.03460597  0.00116849  0.0080018 0.0000
  9   -379.1581646707   0.002747869856 0.02209104  0.00079091  0.0045675 0.0000
 10   -379.1560262266   0.002138444108 0.01090081  0.00041851  0.0021044 0.0000
                      *** Initiating the SOSCF procedure ***
                           *** Shutting down DIIS ***
                      *** Re-Reading the Fockian *** 
                      *** Removing any level shift *** 
ITER      Energy       Delta-E        Grad      Rot      Max-DP    RMS-DP
 11   -379.15536119   0.0006650327  0.001825  0.001825  0.006779  0.000278
               *** Restarting incremental Fock matrix formation ***
 12   -379.15452381   0.0008373883  0.000117  0.000273  0.000265  0.000018
                 **** Energy Check signals convergence ****
              ***Rediagonalizing the Fockian in SOSCF/NRSCF***

               *****************************************************
               *                     SUCCESS                       *
               *           SCF CONVERGED AFTER  13 CYCLES          *
               *****************************************************

Total Energy       :         -379.15452405 Eh          -10317.31912 eV
  Last Energy change         ...   -2.4459e-07  Tolerance :   1.0000e-06
  Last MAX-Density change    ...    2.5205e-04  Tolerance :   1.0000e-05
             **** THE GBW FILE WAS UPDATED (dvb_scan_unrelaxed.gbw) ****
             **** DENSITY dvb_scan_unrelaxed.scfp WAS UPDATED ****
             **** ENERGY FILE WAS UPDATED (dvb_scan_unrelaxed.en.tmp) ****
             **** THE GBW FILE WAS UPDATED (dvb_scan_unrelaxed.gbw) ****
             **** DENSITY dvb_scan_unrelaxed.scfp WAS UPDATED ****
Total SCF time: 0 days 0 hours 0 min 4 sec 

Maximum memory used throughout the entire SCF-calculation: 228.4 MB

-------------------------   --------------------
FINAL SINGLE POINT ENERGY      -379.154524050213
-------------------------   --------------------

Storing actual gbw-file in dvb_scan_unrelaxed.011.gbw ... done

                            ***************************************
                            *     ORCA property calculations      *
                            ***************************************

                                    ---------------------
                                    Active property flags
                                    ---------------------
   (+) Dipole Moment


------------------------------------------------------------------------------
                       ORCA ELECTRIC PROPERTIES CALCULATION
------------------------------------------------------------------------------

Dipole Moment Calculation                       ... on
Quadrupole Moment Calculation                   ... off
Polarizability Calculation                      ... off
GBWName                                         ... dvb_scan_unrelaxed.gbw
Electron density file                           ... dvb_scan_unrelaxed.scfp
The origin for moment calculation is the CENTER OF MASS  = ( 1.714209,  2.028252  0.130727)

-------------
DIPOLE MOMENT
-------------
                                X             Y             Z
Electronic contribution:     -2.64829       1.11141      -0.75723
Nuclear contribution   :      2.87357      -1.65173       0.97321
                        -----------------------------------------
Total Dipole Moment    :      0.22527      -0.54032       0.21598
                        -----------------------------------------
Magnitude (a.u.)       :      0.62397
Magnitude (Debye)      :      1.58601



--------------------
Rotational spectrum 
--------------------
 
Rotational constants in cm-1:     0.139230     0.024883     0.021289 
Rotational constants in MHz :  4173.997648   745.964639   638.231012 

 Dipole components along the rotational axes: 
x,y,z [a.u.] :    -0.344112     0.479502     0.202499 
x,y,z [Debye]:    -0.874662     1.218797     0.514711 

 

         *************************************************************
                                TRAJECTORY STEP  12
                 D7  : 360.00000000
         *************************************************************
---------------------------------
CARTESIAN COORDINATES (ANGSTROEM)
---------------------------------
  C      0.000000    0.000000    0.000000
  C      1.391558    0.000000    0.000000
  C      2.091623    1.199912    0.000000
  C      1.405722    2.381427    0.000000
  C      0.014165    2.381427    0.000000
  H      1.937349   -0.949187    0.000000
  H      3.187592    1.193861    0.000000
  H     -0.531626    3.330614    0.000000
  C      2.146185    3.669632    0.000000
  C      3.486295    3.756559    0.000000
  H      4.091847    2.833995    0.000000
  H      3.241279    3.585803    0.000000
  H      3.998992    4.695730    0.000000
  C     -0.740463   -1.288205   -0.000000
  H     -1.835557   -1.204377   -0.000000
  C     -0.141086   -2.489953   -0.000000
  H      0.960888   -2.548878   -0.000000
  H     -0.694583   -3.405672   -0.000000
  C     -0.685901    1.181515    0.000000
  H     -1.781870    1.187566    0.000000

----------------------------
CARTESIAN COORDINATES (A.U.)
----------------------------
  NO LB      ZA    FRAG     MASS         X           Y           Z
   0 C     6.0000    0    12.011    0.000000    0.000000    0.000000
   1 C     6.0000    0    12.011    2.629663    0.000000    0.000000
   2 C     6.0000    0    12.011    3.952595    2.267504    0.000000
   3 C     6.0000    0    12.011    2.656430    4.500245    0.000000
   4 C     6.0000    0    12.011    0.026767    4.500245    0.000000
   5 H     1.0000    0     1.008    3.661058   -1.793704    0.000000
   6 H     1.0000    0     1.008    6.023676    2.256069    0.000000
   7 H     1.0000    0     1.008   -1.004628    6.293949    0.000000
   8 C     6.0000    0    12.011    4.055702    6.934600    0.000000
   9 C     6.0000    0    12.011    6.588142    7.098868    0.000000
  10 H     1.0000    0     1.008    7.732471    5.355474    0.000000
  11 H     1.0000    0     1.008    6.125130    6.776186    0.000000
  12 H     1.0000    0     1.008    7.557000    8.873643    0.000000
  13 C     6.0000    0    12.011   -1.399272   -2.434355   -0.000000
  14 H     1.0000    0     1.008   -3.468700   -2.275942   -0.000000
  15 C     6.0000    0    12.011   -0.266614   -4.705329   -0.000000
  16 H     1.0000    0     1.008    1.815815   -4.816682   -0.000000
  17 H     1.0000    0     1.008   -1.312571   -6.435787   -0.000000
  18 C     6.0000    0    12.011   -1.296165    2.232740    0.000000
  19 H     1.0000    0     1.008   -3.367246    2.244175    0.000000

--------------------------------
INTERNAL COORDINATES (ANGSTROEM)
--------------------------------
 C      0   0   0     0.000000000000     0.00000000     0.00000000
 C      1   0   0     1.391557620000     0.00000000     0.00000000
 C      2   1   0     1.389201120000   120.26061806     0.00000000
 C      3   2   1     1.366176700000   119.60307576     0.00000000
 C      4   3   2     1.391557620000   120.13630618     0.00000000
 H      2   1   5     1.094917540000   119.89927090   180.00000000
 H      3   2   1     1.095985470000   119.94428410   180.00000000
 H      5   4   3     1.094917540000   119.89927090   180.00000000
 C      4   3   2     1.485852830000   119.97332138   180.00000000
 C      9   4   3     1.342925810000   123.60169362   360.00000000
 H     10   9   4     1.103548260000   119.56877435     0.00000000
 H      9   4   3     1.098298010000   115.51294680     0.00000000
 H     10   9   4     1.070000000000   122.34164357   180.00000000
 C      1   2   3     1.485852830000   119.89037245   180.00000000
 H     14   1   2     1.098298010000   115.51294680   180.00000000
 C     14   1   2     1.342925810000   123.60169362     0.00000000
 H     16  14   1     1.103548260000   119.56877435     0.00000000
 H     16  14   1     1.070000000000   122.34164357   180.00000000
 C      5   4   3     1.389201120000   120.26061806     0.00000000
 H     19   5   4     1.095985470000   119.94428410   180.00000000

---------------------------
INTERNAL COORDINATES (A.U.)
---------------------------
 C      0   0   0     0.000000000000     0.00000000     0.00000000
 C      1   0   0     2.629662801371     0.00000000     0.00000000
 C      2   1   0     2.625209661737   120.26061806     0.00000000
 C      3   2   1     2.581699813544   119.60307576     0.00000000
 C      4   3   2     2.629662801371   120.13630618     0.00000000
 H      2   1   5     2.069094289827   119.89927090   180.00000000
 H      3   2   1     2.071112385057   119.94428410   180.00000000
 H      5   4   3     2.069094289827   119.89927090   180.00000000
 C      4   3   2     2.807854924012   119.97332138   180.00000000
 C      9   4   3     2.537761999074   123.60169362   360.00000000
 H     10   9   4     2.085403986965   119.56877435     0.00000000
 H      9   4   3     2.075482452331   115.51294680     0.00000000
 H     10   9   4     2.022006963296   122.34164357   180.00000000
 C      1   2   3     2.807854924012   119.89037245   180.00000000
 H     14   1   2     2.075482452331   115.51294680   180.00000000
 C     14   1   2     2.537761999074   123.60169362     0.00000000
 H     16  14   1     2.085403986965   119.56877435     0.00000000
 H     16  14   1     2.022006963296   122.34164357   180.00000000
 C      5   4   3     2.625209661737   120.26061806     0.00000000
 H     19   5   4     2.071112385057   119.94428410   180.00000000

------------------------------------------------------------------------------
                   ___                                                        
                  /   \      - P O W E R E D   B Y -                         
                 /     \                                                     
                 |  |  |   _    _      __       _____    __    __             
                 |  |  |  | |  | |    /  \     |  _  \  |  |  /  |          
                  \  \/   | |  | |   /    \    | | | |  |  | /  /          
                 / \  \   | |__| |  /  /\  \   | |_| |  |  |/  /          
                |  |  |   |  __  | /  /__\  \  |    /   |      \           
                |  |  |   | |  | | |   __   |  |    \   |  |\   \          
                \     /   | |  | | |  |  |  |  | |\  \  |  | \   \       
                 \___/    |_|  |_| |__|  |__|  |_| \__\ |__|  \__/        
                                                                              
                      - O R C A' S   B I G   F R I E N D -                    
                                      &                                       
                       - I N T E G R A L  F E E D E R -                       
                                                                              
 v1 FN, 2020, v2 2021                                                         
------------------------------------------------------------------------------


Reading SHARK input file dvb_scan_unrelaxed.SHARKINP.tmp ... ok
----------------------
SHARK INTEGRAL PACKAGE
----------------------

Number of atoms                             ...     20
Number of basis functions                   ...     60
Number of shells                            ...     40
Maximum angular momentum                    ...      1
Integral batch strategy                     ... SHARK/LIBINT Hybrid
RI-J (if used) integral strategy            ... SPLIT-RIJ (Revised 2003 algorithm where possible)
Printlevel                                  ...      1
Contraction scheme used                     ... SEGMENTED contraction
Coulomb Range Separation                    ... NOT USED
Exchange Range Separation                   ... NOT USED
Finite Nucleus Model                        ... NOT USED
Auxiliary Coulomb fitting basis             ... NOT available
Auxiliary J/K fitting basis                 ... NOT available
Auxiliary Correlation fitting basis         ... NOT available
Auxiliary 'external' fitting basis          ... NOT available
Integral threshold                          ...     1.000000e-10
Primitive cut-off                           ...     1.000000e-11
Primitive pair pre-selection threshold      ...     1.000000e-11

Calculating pre-screening integrals         ... done (  0.0 sec) Dimension = 40
Organizing shell pair data                  ... done (  0.0 sec)
Shell pair information
Total number of shell pairs                 ...       820
Shell pairs after pre-screening             ...       760
Total number of primitive shell pairs       ...      7380
Primitive shell pairs kept                  ...      4874
          la=0 lb=0:    411 shell pairs
          la=1 lb=0:    294 shell pairs
          la=1 lb=1:     55 shell pairs

Calculating one electron integrals          ... done (  0.0 sec)
Calculating Nuclear repulsion               ... done (  0.0 sec) ENN=    465.089018243124 Eh

SHARK setup successfully completed in   0.0 seconds

Maximum memory used throughout the entire GTOINT-calculation: 5.6 MB

Diagonalization of the overlap matrix:
Smallest eigenvalue                        ... 9.768e-03
Time for diagonalization                   ...    0.001 sec
Threshold for overlap eigenvalues          ... 1.000e-08
Number of eigenvalues below threshold      ... 0
Time for construction of square roots      ...    0.000 sec
Total time needed                          ...    0.001 sec

--------------
SCF ITERATIONS
--------------
ITER       Energy         Delta-E        Max-DP      RMS-DP      [F,P]     Damp
               ***  Starting incremental Fock matrix formation  ***
  0   -375.4234209699   0.000000000000 0.26063143  0.00914474  0.2424065 0.7000
  1   -375.5089686901  -0.085547720233 0.20293850  0.00727093  0.1987304 0.7000
                               ***Turning on DIIS***
  2   -375.5777807811  -0.068812091004 0.14765713  0.00547970  0.1590552 0.7000
  3   -375.5870462516  -0.009265470530 0.13566946  0.00456294  0.1269661 0.7000
  4   -375.6354419816  -0.048395729934 0.39083209  0.01273674  0.0980008 0.0000
  5   -375.8088600326  -0.173418051091 0.06077315  0.00278882  0.0306155 0.0000
  6   -375.8270032916  -0.018143258988 0.06344022  0.00249683  0.0267124 0.0000
  7   -375.8287069379  -0.001703646313 0.06391667  0.00225740  0.0199593 0.0000
  8   -375.8262358091   0.002471128895 0.04501898  0.00149064  0.0119943 0.0000
  9   -375.8260529575   0.000182851528 0.02527742  0.00082121  0.0059010 0.0000
 10   -375.8254785508   0.000574406679 0.01161219  0.00039157  0.0023667 0.0000
                      *** Initiating the SOSCF procedure ***
                           *** Shutting down DIIS ***
                      *** Re-Reading the Fockian *** 
                      *** Removing any level shift *** 
ITER      Energy       Delta-E        Grad      Rot      Max-DP    RMS-DP
 11   -375.82515373   0.0003248230  0.002533  0.002533  0.006897  0.000268
               *** Restarting incremental Fock matrix formation ***
 12   -375.82505963   0.0000940946  0.000170  0.000388  0.000398  0.000024
                 **** Energy Check signals convergence ****
              ***Rediagonalizing the Fockian in SOSCF/NRSCF***

               *****************************************************
               *                     SUCCESS                       *
               *           SCF CONVERGED AFTER  13 CYCLES          *
               *****************************************************

Total Energy       :         -375.82506009 Eh          -10226.71980 eV
  Last Energy change         ...   -4.5307e-07  Tolerance :   1.0000e-06
  Last MAX-Density change    ...    3.6816e-04  Tolerance :   1.0000e-05
             **** THE GBW FILE WAS UPDATED (dvb_scan_unrelaxed.gbw) ****
             **** DENSITY dvb_scan_unrelaxed.scfp WAS UPDATED ****
             **** ENERGY FILE WAS UPDATED (dvb_scan_unrelaxed.en.tmp) ****
             **** THE GBW FILE WAS UPDATED (dvb_scan_unrelaxed.gbw) ****
             **** DENSITY dvb_scan_unrelaxed.scfp WAS UPDATED ****
Total SCF time: 0 days 0 hours 0 min 4 sec 

Maximum memory used throughout the entire SCF-calculation: 228.4 MB

-------------------------   --------------------
FINAL SINGLE POINT ENERGY      -375.825060086258
-------------------------   --------------------

Storing actual gbw-file in dvb_scan_unrelaxed.012.gbw ... done

                            ***************************************
                            *     ORCA property calculations      *
                            ***************************************

                                    ---------------------
                                    Active property flags
                                    ---------------------
   (+) Dipole Moment


------------------------------------------------------------------------------
                       ORCA ELECTRIC PROPERTIES CALCULATION
------------------------------------------------------------------------------

Dipole Moment Calculation                       ... on
Quadrupole Moment Calculation                   ... off
Polarizability Calculation                      ... off
GBWName                                         ... dvb_scan_unrelaxed.gbw
Electron density file                           ... dvb_scan_unrelaxed.scfp
The origin for moment calculation is the CENTER OF MASS  = ( 1.747488,  2.009123  0.000000)

-------------
DIPOLE MOMENT
-------------
                                X             Y             Z
Electronic contribution:     -3.18437       0.81231       0.00009
Nuclear contribution   :      3.12131      -1.79414       0.00000
                        -----------------------------------------
Total Dipole Moment    :     -0.06305      -0.98183       0.00009
                        -----------------------------------------
Magnitude (a.u.)       :      0.98385
Magnitude (Debye)      :      2.50076



--------------------
Rotational spectrum 
--------------------
 
Rotational constants in cm-1:     0.138319     0.025058     0.021215 
Rotational constants in MHz :  4146.692775   751.230231   636.008563 

 Dipole components along the rotational axes: 
x,y,z [a.u.] :    -0.874152     0.451471     0.000095 
x,y,z [Debye]:    -2.221917     1.147548     0.000241 

 
                              **** TRAJECTORY DONE ***

                         SUMMARY OF THE CALCULATED SURFACE

------------------
TRAJECTORY RESULTS
------------------

Column   1: D7

The Calculated Surface using the 'Actual Energy'
   0.00000000 -375.82506020
  32.72727273 -379.15452391
  65.45454545 -379.56823943
  98.18181818 -379.64330386
 130.90909091 -379.72490801
 163.63636364 -379.76193585
 196.36363636 -379.76193584
 229.09090909 -379.72490807
 261.81818182 -379.64330387
 294.54545455 -379.56823948
 327.27272727 -379.15452405
 360.00000000 -375.82506009

The Calculated Surface using the SCF energy
   0.00000000 -375.82506020
  32.72727273 -379.15452391
  65.45454545 -379.56823943
  98.18181818 -379.64330386
 130.90909091 -379.72490801
 163.63636364 -379.76193585
 196.36363636 -379.76193584
 229.09090909 -379.72490807
 261.81818182 -379.64330387
 294.54545455 -379.56823948
 327.27272727 -379.15452405
 360.00000000 -375.82506009


Timings for individual modules:

Sum of individual times         ...       50.928 sec (=   0.849 min)
GTO integral calculation        ...        0.626 sec (=   0.010 min)   1.2 %
SCF iterations                  ...       50.301 sec (=   0.838 min)  98.8 %
                             ****ORCA TERMINATED NORMALLY****
TOTAL RUN TIME: 0 days 0 hours 0 minutes 51 seconds 308 msec
