
                                 *****************
                                 * O   R   C   A *
                                 *****************

                                            #,                                       
                                            ###                                      
                                            ####                                     
                                            #####                                    
                                            ######                                   
                                           ########,                                 
                                     ,,################,,,,,                         
                               ,,#################################,,                 
                          ,,##########################################,,             
                       ,#########################################, ''#####,          
                    ,#############################################,,   '####,        
                  ,##################################################,,,,####,       
                ,###########''''           ''''###############################       
              ,#####''   ,,,,##########,,,,          '''####'''          '####       
            ,##' ,,,,###########################,,,                        '##       
           ' ,,###''''                  '''############,,,                           
         ,,##''                                '''############,,,,        ,,,,,,###''
      ,#''                                            '''#######################'''  
     '                                                          ''''####''''         
             ,#######,   #######,   ,#######,      ##                                
            ,#'     '#,  ##    ##  ,#'     '#,    #''#        ######   ,####,        
            ##       ##  ##   ,#'  ##            #'  '#       #        #'  '#        
            ##       ##  #######   ##           ,######,      #####,   #    #        
            '#,     ,#'  ##    ##  '#,     ,#' ,#      #,         ##   #,  ,#        
             '#######'   ##     ##  '#######'  #'      '#     #####' # '####'        



                  #######################################################
                  #                        -***-                        #
                  #          Department of theory and spectroscopy      #
                  #    Directorship and core code : Frank Neese         #
                  #        Max Planck Institute fuer Kohlenforschung    #
                  #                Kaiser Wilhelm Platz 1               #
                  #                 D-45470 Muelheim/Ruhr               #
                  #                      Germany                        #
                  #                                                     #
                  #                  All rights reserved                #
                  #                        -***-                        #
                  #######################################################


                         Program Version 5.0.3 -  RELEASE  -


 With contributions from (in alphabetic order):
   Daniel Aravena         : Magnetic Suceptibility
   Michael Atanasov       : Ab Initio Ligand Field Theory (pilot matlab implementation)
   Alexander A. Auer      : GIAO ZORA, VPT2 properties, NMR spectrum
   Ute Becker             : Parallelization
   Giovanni Bistoni       : ED, misc. LED, open-shell LED, HFLD
   Martin Brehm           : Molecular dynamics
   Dmytro Bykov           : SCF Hessian
   Vijay G. Chilkuri      : MRCI spin determinant printing, contributions to CSF-ICE
   Dipayan Datta          : RHF DLPNO-CCSD density
   Achintya Kumar Dutta   : EOM-CC, STEOM-CC
   Dmitry Ganyushin       : Spin-Orbit,Spin-Spin,Magnetic field MRCI
   Miquel Garcia          : C-PCM and meta-GGA Hessian, CC/C-PCM, Gaussian charge scheme
   Yang Guo               : DLPNO-NEVPT2, F12-NEVPT2, CIM, IAO-localization
   Andreas Hansen         : Spin unrestricted coupled pair/coupled cluster methods
   Benjamin Helmich-Paris : MC-RPA, TRAH-SCF, COSX integrals
   Lee Huntington         : MR-EOM, pCC
   Robert Izsak           : Overlap fitted RIJCOSX, COSX-SCS-MP3, EOM
   Marcus Kettner         : VPT2
   Christian Kollmar      : KDIIS, OOCD, Brueckner-CCSD(T), CCSD density, CASPT2, CASPT2-K
   Simone Kossmann        : Meta GGA functionals, TD-DFT gradient, OOMP2, MP2 Hessian
   Martin Krupicka        : Initial AUTO-CI
   Lucas Lang             : DCDCAS
   Marvin Lechner         : AUTO-CI (C++ implementation), FIC-MRCC
   Dagmar Lenk            : GEPOL surface, SMD
   Dimitrios Liakos       : Extrapolation schemes; Compound Job, initial MDCI parallelization
   Dimitrios Manganas     : Further ROCIS development; embedding schemes
   Dimitrios Pantazis     : SARC Basis sets
   Anastasios Papadopoulos: AUTO-CI, single reference methods and gradients
   Taras Petrenko         : DFT Hessian,TD-DFT gradient, ASA, ECA, R-Raman, ABS, FL, XAS/XES, NRVS
   Peter Pinski           : DLPNO-MP2, DLPNO-MP2 Gradient
   Christoph Reimann      : Effective Core Potentials
   Marius Retegan         : Local ZFS, SOC
   Christoph Riplinger    : Optimizer, TS searches, QM/MM, DLPNO-CCSD(T), (RO)-DLPNO pert. Triples
   Tobias Risthaus        : Range-separated hybrids, TD-DFT gradient, RPA, STAB
   Michael Roemelt        : Original ROCIS implementation
   Masaaki Saitow         : Open-shell DLPNO-CCSD energy and density
   Barbara Sandhoefer     : DKH picture change effects
   Avijit Sen             : IP-ROCIS
   Kantharuban Sivalingam : CASSCF convergence, NEVPT2, FIC-MRCI
   Bernardo de Souza      : ESD, SOC TD-DFT
   Georgi Stoychev        : AutoAux, RI-MP2 NMR, DLPNO-MP2 response
   Willem Van den Heuvel  : Paramagnetic NMR
   Boris Wezisla          : Elementary symmetry handling
   Frank Wennmohs         : Technical directorship


 We gratefully acknowledge several colleagues who have allowed us to
 interface, adapt or use parts of their codes:
   Stefan Grimme, W. Hujo, H. Kruse, P. Pracht,  : VdW corrections, initial TS optimization,
                  C. Bannwarth, S. Ehlert          DFT functionals, gCP, sTDA/sTD-DF
   Ed Valeev, F. Pavosevic, A. Kumar             : LibInt (2-el integral package), F12 methods
   Garnet Chan, S. Sharma, J. Yang, R. Olivares  : DMRG
   Ulf Ekstrom                                   : XCFun DFT Library
   Mihaly Kallay                                 : mrcc  (arbitrary order and MRCC methods)
   Jiri Pittner, Ondrej Demel                    : Mk-CCSD
   Frank Weinhold                                : gennbo (NPA and NBO analysis)
   Christopher J. Cramer and Donald G. Truhlar   : smd solvation model
   Lars Goerigk                                  : TD-DFT with DH, B97 family of functionals
   V. Asgeirsson, H. Jonsson                     : NEB implementation
   FAccTs GmbH                                   : IRC, NEB, NEB-TS, DLPNO-Multilevel, CI-OPT
                                                   MM, QMMM, 2- and 3-layer-ONIOM, Crystal-QMMM,
                                                   LR-CPCM, SF, NACMEs, symmetry and pop. for TD-DFT,
                                                   nearIR, NL-DFT gradient (VV10), updates on ESD,
                                                   ML-optimized integration grids
   S Lehtola, MJT Oliveira, MAL Marques          : LibXC Library
   Liviu Ungur et al                             : ANISO software


 Your calculation uses the libint2 library for the computation of 2-el integrals
 For citations please refer to: http://libint.valeyev.net

 Your ORCA version has been built with support for libXC version: 5.1.0
 For citations please refer to: https://tddft.org/programs/libxc/

 This ORCA versions uses:
   CBLAS   interface :  Fast vector & matrix operations
   LAPACKE interface :  Fast linear algebra routines
   SCALAPACK package :  Parallel linear algebra routines
   Shared memory     :  Shared parallel matrices
   BLAS/LAPACK       :  OpenBLAS 0.3.15  USE64BITINT DYNAMIC_ARCH NO_AFFINITY SkylakeX SINGLE_THREADED
        Core in use  :  SkylakeX
   Copyright (c) 2011-2014, The OpenBLAS Project


================================================================================

----- Orbital basis set information -----
Your calculation utilizes the basis: STO-3G
   H-Ne       : W. J. Hehre, R. F. Stewart and J. A. Pople, J. Chem. Phys. 2657 (1969).
   Na-Ar      : W. J. Hehre, R. Ditchfield, R. F. Stewart and J. A. Pople, J. Chem. Phys. 2769 (1970).
   K,Ca,Ga-Kr : W. J. Pietro, B. A. Levy, W. J. Hehre and R. F. Stewart, J. Am. Chem. Soc. 19, 2225 (1980).
   Sc-Zn,Y-Cd : W. J. Pietro and W. J. Hehre, J. Comp. Chem. 4, 241 (1983).

================================================================================
                                        WARNINGS
                       Please study these warnings very carefully!
================================================================================


INFO   : the flag for use of the SHARK integral package has been found!

================================================================================
                                       INPUT FILE
================================================================================
NAME = dvb_td.inp
|  1> ! B3LYP NOCOSX NORI STO-3G TightSCF SP
|  2> %Pal NProcs 2 end
|  3> %MaxCore 500
|  4> %SCF
|  5>     AutoTRAH    True
|  6>     CNVDamp     False
|  7>     CNVZerner   False
|  8>     end
|  9> *xyz 0 1
| 10> C            -1.41525300     0.23022200     0.00000000
| 11> C             1.41525300    -0.23022200     0.00000000
| 12> C            -0.49513300     1.31446100     0.00000000
| 13> C             0.49513300    -1.31446100     0.00000000
| 14> C             0.88940900     1.09094900     0.00000000
| 15> C            -0.88940900    -1.09094900     0.00000000
| 16> H            -0.87955100     2.34373400     0.00000000
| 17> H             0.87955100    -2.34373400     0.00000000
| 18> H             1.57790400     1.94500600     0.00000000
| 19> H            -1.57790400    -1.94500600     0.00000000
| 20> C             2.88458400    -0.52108900     0.00000000
| 21> C            -2.88458400     0.52108900     0.00000000
| 22> H             3.14033600    -1.59196100     0.00000000
| 23> H            -3.14033600     1.59196100     0.00000000
| 24> C             3.88004300     0.38225400     0.00000000
| 25> C            -3.88004300    -0.38225400     0.00000000
| 26> H             3.69467700     1.46243900     0.00000000
| 27> H            -3.69467700    -1.46243900     0.00000000
| 28> H             4.93164500     0.07110500     0.00000000
| 29> H            -4.93164500    -0.07110500     0.00000000
| 30> *
| 31> 
| 32>                          ****END OF INPUT****
================================================================================

                       ****************************
                       * Single Point Calculation *
                       ****************************

---------------------------------
CARTESIAN COORDINATES (ANGSTROEM)
---------------------------------
  C     -1.415253    0.230222    0.000000
  C      1.415253   -0.230222    0.000000
  C     -0.495133    1.314461    0.000000
  C      0.495133   -1.314461    0.000000
  C      0.889409    1.090949    0.000000
  C     -0.889409   -1.090949    0.000000
  H     -0.879551    2.343734    0.000000
  H      0.879551   -2.343734    0.000000
  H      1.577904    1.945006    0.000000
  H     -1.577904   -1.945006    0.000000
  C      2.884584   -0.521089    0.000000
  C     -2.884584    0.521089    0.000000
  H      3.140336   -1.591961    0.000000
  H     -3.140336    1.591961    0.000000
  C      3.880043    0.382254    0.000000
  C     -3.880043   -0.382254    0.000000
  H      3.694677    1.462439    0.000000
  H     -3.694677   -1.462439    0.000000
  H      4.931645    0.071105    0.000000
  H     -4.931645   -0.071105    0.000000

----------------------------
CARTESIAN COORDINATES (A.U.)
----------------------------
  NO LB      ZA    FRAG     MASS         X           Y           Z
   0 C     6.0000    0    12.011   -2.674441    0.435057    0.000000
   1 C     6.0000    0    12.011    2.674441   -0.435057    0.000000
   2 C     6.0000    0    12.011   -0.935666    2.483971    0.000000
   3 C     6.0000    0    12.011    0.935666   -2.483971    0.000000
   4 C     6.0000    0    12.011    1.680739    2.061595    0.000000
   5 C     6.0000    0    12.011   -1.680739   -2.061595    0.000000
   6 H     1.0000    0     1.008   -1.662111    4.429015    0.000000
   7 H     1.0000    0     1.008    1.662111   -4.429015    0.000000
   8 H     1.0000    0     1.008    2.981806    3.675529    0.000000
   9 H     1.0000    0     1.008   -2.981806   -3.675529    0.000000
  10 C     6.0000    0    12.011    5.451074   -0.984716    0.000000
  11 C     6.0000    0    12.011   -5.451074    0.984716    0.000000
  12 H     1.0000    0     1.008    5.934375   -3.008370    0.000000
  13 H     1.0000    0     1.008   -5.934375    3.008370    0.000000
  14 C     6.0000    0    12.011    7.332219    0.722355    0.000000
  15 C     6.0000    0    12.011   -7.332219   -0.722355    0.000000
  16 H     1.0000    0     1.008    6.981928    2.763609    0.000000
  17 H     1.0000    0     1.008   -6.981928   -2.763609    0.000000
  18 H     1.0000    0     1.008    9.319458    0.134369    0.000000
  19 H     1.0000    0     1.008   -9.319458   -0.134369    0.000000

--------------------------------
INTERNAL COORDINATES (ANGSTROEM)
--------------------------------
 C      0   0   0     0.000000000000     0.00000000     0.00000000
 C      1   0   0     2.867712135688     0.00000000     0.00000000
 C      1   2   0     1.422039037270    58.92048132     0.00000000
 C      2   1   3     1.422039037270    58.92048132   180.00000000
 C      3   1   2     1.402467170349   121.14864051     0.00000000
 C      4   2   1     1.402467170349   121.14864051     0.00000000
 H      3   1   2     1.098717482910   119.20109072   180.00000000
 H      4   2   1     1.098717482910   119.20109072   180.00000000
 H      5   3   1     1.097013547899   119.70353567   180.00000000
 H      6   4   2     1.097013547899   119.70353567   180.00000000
 C      2   1   3     1.497844183902   178.04205149   180.00000000
 C      1   2   3     1.497844183902   178.04205149     0.00000000
 H     11   2   5     1.100988612969   114.62954513   180.00000000
 H     12   1   6     1.100988612969   114.62954513   180.00000000
 C     11   2   5     1.344234799553   126.57996071     0.00000000
 C     12   1   6     1.344234799553   126.57996071     0.00000000
 H     15  11   2     1.095974538108   122.48516263     0.00000000
 H     16  12   1     1.095974538108   122.48516263     0.00000000
 H     15  11   2     1.096667892575   121.29491313   180.00000121
 H     16  12   1     1.096667892575   121.29491313   180.00000121

---------------------------
INTERNAL COORDINATES (A.U.)
---------------------------
 C      0   0   0     0.000000000000     0.00000000     0.00000000
 C      1   0   0     5.419190567373     0.00000000     0.00000000
 C      1   2   0     2.687264332186    58.92048132     0.00000000
 C      2   1   3     2.687264332186    58.92048132   180.00000000
 C      3   1   2     2.650278863776   121.14864051     0.00000000
 C      4   2   1     2.650278863776   121.14864051     0.00000000
 H      3   1   2     2.076275141252   119.20109072   180.00000000
 H      4   2   1     2.076275141252   119.20109072   180.00000000
 H      5   3   1     2.073055170730   119.70353567   180.00000000
 H      6   4   2     2.073055170730   119.70353567   180.00000000
 C      2   1   3     2.830515298862   178.04205149   180.00000000
 C      1   2   3     2.830515298862   178.04205149     0.00000000
 H     11   2   5     2.080566955078   114.62954513   180.00000000
 H     12   1   6     2.080566955078   114.62954513   180.00000000
 C     11   2   5     2.540235630842   126.57996071     0.00000000
 C     12   1   6     2.540235630842   126.57996071     0.00000000
 H     15  11   2     2.071091726775   122.48516263     0.00000000
 H     16  12   1     2.071091726775   122.48516263     0.00000000
 H     15  11   2     2.072401976831   121.29491313   180.00000121
 H     16  12   1     2.072401976831   121.29491313   180.00000121

---------------------
BASIS SET INFORMATION
---------------------
There are 2 groups of distinct atoms

 Group   1 Type C   : 6s3p contracted to 2s1p pattern {33/3}
 Group   2 Type H   : 3s contracted to 1s pattern {3}

Atom   0C    basis set group =>   1
Atom   1C    basis set group =>   1
Atom   2C    basis set group =>   1
Atom   3C    basis set group =>   1
Atom   4C    basis set group =>   1
Atom   5C    basis set group =>   1
Atom   6H    basis set group =>   2
Atom   7H    basis set group =>   2
Atom   8H    basis set group =>   2
Atom   9H    basis set group =>   2
Atom  10C    basis set group =>   1
Atom  11C    basis set group =>   1
Atom  12H    basis set group =>   2
Atom  13H    basis set group =>   2
Atom  14C    basis set group =>   1
Atom  15C    basis set group =>   1
Atom  16H    basis set group =>   2
Atom  17H    basis set group =>   2
Atom  18H    basis set group =>   2
Atom  19H    basis set group =>   2
--------------------------------------------------------------------------
WARNING: There was an error initializing an OpenFabrics device.

  Local host:   kennedy120
  Local device: mlx5_0
--------------------------------------------------------------------------


           ************************************************************
           *        Program running with 2 parallel MPI-processes     *
           *              working on a common directory               *
           ************************************************************
------------------------------------------------------------------------------
                           ORCA GTO INTEGRAL CALCULATION
------------------------------------------------------------------------------
------------------------------------------------------------------------------
                   ___                                                        
                  /   \      - P O W E R E D   B Y -                         
                 /     \                                                     
                 |  |  |   _    _      __       _____    __    __             
                 |  |  |  | |  | |    /  \     |  _  \  |  |  /  |          
                  \  \/   | |  | |   /    \    | | | |  |  | /  /          
                 / \  \   | |__| |  /  /\  \   | |_| |  |  |/  /          
                |  |  |   |  __  | /  /__\  \  |    /   |      \           
                |  |  |   | |  | | |   __   |  |    \   |  |\   \          
                \     /   | |  | | |  |  |  |  | |\  \  |  | \   \       
                 \___/    |_|  |_| |__|  |__|  |_| \__\ |__|  \__/        
                                                                              
                      - O R C A' S   B I G   F R I E N D -                    
                                      &                                       
                       - I N T E G R A L  F E E D E R -                       
                                                                              
 v1 FN, 2020, v2 2021                                                         
------------------------------------------------------------------------------


Reading SHARK input file dvb_td.SHARKINP.tmp ... ok
----------------------
SHARK INTEGRAL PACKAGE
----------------------

Number of atoms                             ...     20
Number of basis functions                   ...     60
Number of shells                            ...     40
Maximum angular momentum                    ...      1
Integral batch strategy                     ... SHARK/LIBINT Hybrid
RI-J (if used) integral strategy            ... SPLIT-RIJ (Revised 2003 algorithm where possible)
Printlevel                                  ...      1
Contraction scheme used                     ... SEGMENTED contraction
Coulomb Range Separation                    ... NOT USED
Exchange Range Separation                   ... NOT USED
Finite Nucleus Model                        ... NOT USED
Auxiliary Coulomb fitting basis             ... NOT available
Auxiliary J/K fitting basis                 ... NOT available
Auxiliary Correlation fitting basis         ... NOT available
Auxiliary 'external' fitting basis          ... NOT available
Integral threshold                          ...     2.500000e-11
Primitive cut-off                           ...     2.500000e-12
Primitive pair pre-selection threshold      ...     2.500000e-12

Calculating pre-screening integrals         ... done (  0.0 sec) Dimension = 40
Organizing shell pair data                  ... [kennedy120:05037] 1 more process has sent help message help-mpi-btl-openib.txt / error in device init
[kennedy120:05037] Set MCA parameter "orte_base_help_aggregate" to 0 to see all help / error messages
done (  0.0 sec)
Shell pair information
Total number of shell pairs                 ...       820
Shell pairs after pre-screening             ...       756
Total number of primitive shell pairs       ...      7380
Primitive shell pairs kept                  ...      4872
          la=0 lb=0:    409 shell pairs
          la=1 lb=0:    292 shell pairs
          la=1 lb=1:     55 shell pairs

Calculating one electron integrals          ... done (  0.2 sec)
Calculating Nuclear repulsion               ... done (  0.0 sec) ENN=    445.936996539561 Eh

SHARK setup successfully completed in   3.1 seconds

Maximum memory used throughout the entire GTOINT-calculation: 5.0 MB
--------------------------------------------------------------------------
WARNING: There was an error initializing an OpenFabrics device.

  Local host:   kennedy120
  Local device: mlx5_0
--------------------------------------------------------------------------


           ************************************************************
           *        Program running with 2 parallel MPI-processes     *
           *              working on a common directory               *
           ************************************************************
-------------------------------------------------------------------------------
                                 ORCA SCF
-------------------------------------------------------------------------------

------------
SCF SETTINGS
------------
Hamiltonian:
 Density Functional     Method          .... DFT(GTOs)
 Exchange Functional    Exchange        .... B88
   X-Alpha parameter    XAlpha          ....  0.666667
   Becke's b parameter  XBeta           ....  0.004200
 Correlation Functional Correlation     .... LYP
 LDA part of GGA corr.  LDAOpt          .... VWN-5
 Gradients option       PostSCFGGA      .... off
 Hybrid DFT is turned on
   Fraction HF Exchange ScalHFX         ....  0.200000
   Scaling of DF-GGA-X  ScalDFX         ....  0.720000
   Scaling of DF-GGA-C  ScalDFC         ....  0.810000
   Scaling of DF-LDA-C  ScalLDAC        ....  1.000000
   Perturbative correction              ....  0.000000
   Density functional embedding theory  .... OFF
   NL short-range parameter             ....  4.800000


General Settings:
 Integral files         IntName         .... dvb_td
 Hartree-Fock type      HFTyp           .... RHF
 Total Charge           Charge          ....    0
 Multiplicity           Mult            ....    1
 Number of Electrons    NEL             ....   70
 Basis Dimension        Dim             ....   60
 Nuclear Repulsion      ENuc            ....    445.9369965396 Eh

Convergence Acceleration:
 DIIS                   CNVDIIS         .... on
   Start iteration      DIISMaxIt       ....    12
   Startup error        DIISStart       ....  0.200000
   # of expansion vecs  DIISMaxEq       ....     5
   Bias factor          DIISBfac        ....   1.050
   Max. coefficient     DIISMaxC        ....  10.000
 Trust-Rad. Augm. Hess. CNVTRAH         .... auto
   Auto Start mean grad. ratio tolernc. ....  1.125000
   Auto Start start iteration           ....    20
   Auto Start num. interpolation iter.  ....    10
   Max. Number of Micro iterations      ....    16
   Max. Number of Macro iterations      .... Maxiter - #DIIS iter
   Number of Davidson start vectors     ....     2
   Converg. threshold I  (grad. norm)   ....   1.000e-05
   Converg. threshold II (energy diff.) ....   1.000e-08
   Grad. Scal. Fac. for Micro threshold ....   0.100
   Minimum threshold for Micro iter.    ....   0.010
   NR start threshold (gradient norm)   ....   0.001
   Initial trust radius                 ....   0.400
   Minimum AH scaling param. (alpha)    ....   1.000
   Maximum AH scaling param. (alpha)    .... 1000.000
   Orbital update algorithm             .... Taylor
   White noise on init. David. guess    .... on
   Maximum white noise                  ....   0.010
   Quad. conv. algorithm                .... NR
 SOSCF                  CNVSOSCF        .... on
   Start iteration      SOSCFMaxIt      ....   150
   Startup grad/error   SOSCFStart      ....  0.003300
 Level Shifting         CNVShift        .... on
   Level shift para.    LevelShift      ....    0.2500
   Turn off err/grad.   ShiftErr        ....    0.0010
 Zerner damping         CNVZerner       .... off
 Static damping         CNVDamp         .... off
 Fernandez-Rico         CNVRico         .... off

SCF Procedure:
 Maximum # iterations   MaxIter         ....   125
 SCF integral mode      SCFMode         .... Direct
   Integral package                     .... SHARK and LIBINT hybrid scheme
 Reset frequency        DirectResetFreq ....    20
 Integral Threshold     Thresh          ....  2.500e-11 Eh
 Primitive CutOff       TCut            ....  2.500e-12 Eh

Convergence Tolerance:
 Convergence Check Mode ConvCheckMode   .... Total+1el-Energy
 Convergence forced     ConvForced      .... 0
 Energy Change          TolE            ....  1.000e-08 Eh
 1-El. energy change                    ....  1.000e-05 Eh
 Orbital Gradient       TolG            ....  1.000e-05
 Orbital Rotation angle TolX            ....  1.000e-05
 DIIS Error             TolErr          ....  5.000e-07


Diagonalization of the overlap matrix:
[kennedy120:05102] 1 more process has sent help message help-mpi-btl-openib.txt / error in device init
[kennedy120:05102] Set MCA parameter "orte_base_help_aggregate" to 0 to see all help / error messages
Smallest eigenvalue                        ... 1.815e-01
Time for diagonalization                   ...    2.838 sec
Threshold for overlap eigenvalues          ... 1.000e-08
Number of eigenvalues below threshold      ... 0
Time for construction of square roots      ...    0.002 sec
Total time needed                          ...    2.840 sec

Time for model grid setup =    3.132 sec

------------------------------
INITIAL GUESS: MODEL POTENTIAL
------------------------------
Loading Hartree-Fock densities                     ... done
Calculating cut-offs                               ... done
Initializing the effective Hamiltonian             ... done
Setting up the integral package (SHARK)            ... done
Starting the Coulomb interaction                   ... done (   1.4 sec)
Reading the grid                                   ... done
Mapping shells                                     ... done
Starting the XC term evaluation                    ... done (   0.5 sec)
  promolecular density results
     # of electrons  =     69.991105383
     EX              =    -54.264379396
     EC              =     -2.295156947
     EX+EC           =    -56.559536343
Transforming the Hamiltonian                       ... done (   0.0 sec)
Diagonalizing the Hamiltonian                      ... done (   0.0 sec)
Back transforming the eigenvectors                 ... done (   0.0 sec)
Now organizing SCF variables                       ... done
                      ------------------
                      INITIAL GUESS DONE (   5.0 sec)
                      ------------------
-------------------
DFT GRID GENERATION
-------------------

General Integration Accuracy     IntAcc      ... 4.388
Radial Grid Type                 RadialGrid  ... OptM3 with GC (2021)
Angular Grid (max. ang.)         AngularGrid ... 4 (Lebedev-302)
Angular grid pruning method      GridPruning ... 4 (adaptive)
Weight generation scheme         WeightScheme... Becke
Basis function cutoff            BFCut       ... 1.0000e-11
Integration weight cutoff        WCut        ... 1.0000e-14
Angular grids for H and He will be reduced by one unit
Partially contracted basis set               ... off
Rotationally invariant grid construction     ... off

Total number of grid points                  ...    92318
Total number of batches                      ...     1450
Average number of points per batch           ...       63
Average number of grid points per atom       ...     4616
Time for grid setup =    0.629 sec

--------------
SCF ITERATIONS
--------------
ITER       Energy         Delta-E        Max-DP      RMS-DP      [F,P]
               ***  Starting incremental Fock matrix formation  ***
  0   -381.9983685302   0.000000000000 0.14157684  0.01062865  0.0765153
  1   -382.0472812080  -0.048912677721 0.04783564  0.00305830  0.0200741
                               ***Turning on DIIS***
  2   -382.0495864689  -0.002305260985 0.03761247  0.00193779  0.0194040
  3   -382.0499423343  -0.000355865376 0.01052607  0.00063808  0.0174340
  4   -382.0506285697  -0.000686235378 0.00387874  0.00018107  0.0052298
                      *** Initiating the SOSCF procedure ***
                           *** Shutting down DIIS ***
                      *** Re-Reading the Fockian *** 
                      *** Removing any level shift *** 
ITER      Energy       Delta-E        Grad      Rot      Max-DP    RMS-DP
  5   -382.05068558  -0.0000570094  0.000434  0.000434  0.001623  0.000060
               *** Restarting incremental Fock matrix formation ***
  6   -382.05069130  -0.0000057224  0.000287  0.001149  0.002025  0.000075
  7   -382.05069041   0.0000008921  0.000339  0.000445  0.001105  0.000044
  8   -382.05069218  -0.0000017749  0.000030  0.000062  0.000159  0.000009
  9   -382.05069218   0.0000000070  0.000038  0.000038  0.000097  0.000005
 10   -382.05069220  -0.0000000232  0.000003  0.000007  0.000012  0.000001
                  ***Gradient check signals convergence***
              ***Rediagonalizing the Fockian in SOSCF/NRSCF***

               *****************************************************
               *                     SUCCESS                       *
               *           SCF CONVERGED AFTER  11 CYCLES          *
               *****************************************************


----------------
TOTAL SCF ENERGY
----------------

Total Energy       :         -382.05069220 Eh          -10396.12786 eV

Components:
Nuclear Repulsion  :          445.93699654 Eh           12134.56259 eV
Electronic Energy  :         -827.98768874 Eh          -22530.69045 eV
One Electron Energy:        -1400.64020235 Eh          -38113.35755 eV
Two Electron Energy:          572.65251361 Eh           15582.66710 eV

Virial components:
Potential Energy   :         -757.89397420 Eh          -20623.34351 eV
Kinetic Energy     :          375.84328200 Eh           10227.21564 eV
Virial Ratio       :            2.01651595


DFT components:
N(Alpha)           :       34.999915907801 electrons
N(Beta)            :       34.999915907801 electrons
N(Total)           :       69.999831815603 electrons
E(X)               :      -43.808486311138 Eh       
E(C)               :       -2.717829982154 Eh       
E(XC)              :      -46.526316293292 Eh       
DFET-embed. en.    :        0.000000000000 Eh       

---------------
SCF CONVERGENCE
---------------

  Last Energy change         ...   -2.7063e-10  Tolerance :   1.0000e-08
  Last MAX-Density change    ...    4.7489e-06  Tolerance :   1.0000e-07
  Last RMS-Density change    ...    3.6905e-07  Tolerance :   5.0000e-09
  Last Orbital Gradient      ...    2.3905e-06  Tolerance :   1.0000e-05
  Last Orbital Rotation      ...    3.0192e-06  Tolerance :   1.0000e-05

             **** THE GBW FILE WAS UPDATED (dvb_td.gbw) ****
             **** DENSITY dvb_td.scfp WAS UPDATED ****
             **** ENERGY FILE WAS UPDATED (dvb_td.en.tmp) ****
             **** THE GBW FILE WAS UPDATED (dvb_td.gbw) ****
             **** DENSITY dvb_td.scfp WAS UPDATED ****
----------------
ORBITAL ENERGIES
----------------

  NO   OCC          E(Eh)            E(eV) 
   0   2.0000     -10.016214      -272.5551 
   1   2.0000     -10.016166      -272.5537 
   2   2.0000     -10.003938      -272.2210 
   3   2.0000     -10.003937      -272.2210 
   4   2.0000     -10.002888      -272.1924 
   5   2.0000     -10.002886      -272.1924 
   6   2.0000     -10.002241      -272.1748 
   7   2.0000     -10.002098      -272.1709 
   8   2.0000      -9.988175      -271.7921 
   9   2.0000      -9.988175      -271.7921 
  10   2.0000      -0.805831       -21.9278 
  11   2.0000      -0.750298       -20.4166 
  12   2.0000      -0.714222       -19.4350 
  13   2.0000      -0.696284       -18.9469 
  14   2.0000      -0.663668       -18.0593 
  15   2.0000      -0.584871       -15.9151 
  16   2.0000      -0.555510       -15.1162 
  17   2.0000      -0.527786       -14.3618 
  18   2.0000      -0.506302       -13.7772 
  19   2.0000      -0.453967       -12.3531 
  20   2.0000      -0.435562       -11.8522 
  21   2.0000      -0.407374       -11.0852 
  22   2.0000      -0.394048       -10.7226 
  23   2.0000      -0.392297       -10.6750 
  24   2.0000      -0.370790       -10.0897 
  25   2.0000      -0.347276        -9.4499 
  26   2.0000      -0.343370        -9.3436 
  27   2.0000      -0.320878        -8.7315 
  28   2.0000      -0.307418        -8.3653 
  29   2.0000      -0.289322        -7.8728 
  30   2.0000      -0.283842        -7.7237 
  31   2.0000      -0.259854        -7.0710 
  32   2.0000      -0.208726        -5.6797 
  33   2.0000      -0.191559        -5.2126 
  34   2.0000      -0.149378        -4.0648 
  35   0.0000       0.041142         1.1195 
  36   0.0000       0.093754         2.5512 
  37   0.0000       0.114365         3.1120 
  38   0.0000       0.185851         5.0573 
  39   0.0000       0.275961         7.5093 
  40   0.0000       0.336123         9.1464 
  41   0.0000       0.344273         9.3681 
  42   0.0000       0.383182        10.4269 
  43   0.0000       0.384915        10.4741 
  44   0.0000       0.413985        11.2651 
  45   0.0000       0.414869        11.2892 
  46   0.0000       0.429440        11.6857 
  47   0.0000       0.443018        12.0551 
  48   0.0000       0.457369        12.4457 
  49   0.0000       0.481996        13.1158 
  50   0.0000       0.529236        14.4012 
  51   0.0000       0.550026        14.9670 
  52   0.0000       0.580105        15.7855 
  53   0.0000       0.602127        16.3847 
  54   0.0000       0.628573        17.1043 
  55   0.0000       0.643514        17.5109 
  56   0.0000       0.686531        18.6815 
  57   0.0000       0.721056        19.6209 
  58   0.0000       0.782750        21.2997 
  59   0.0000       0.797966        21.7138 

                    ********************************
                    * MULLIKEN POPULATION ANALYSIS *
                    ********************************

-----------------------
MULLIKEN ATOMIC CHARGES
-----------------------
   0 C :   -0.004350
   1 C :   -0.004350
   2 C :   -0.076574
   3 C :   -0.076574
   4 C :   -0.076965
   5 C :   -0.076965
   6 H :    0.077830
   7 H :    0.077830
   8 H :    0.079167
   9 H :    0.079167
  10 C :   -0.076222
  11 C :   -0.076222
  12 H :    0.076536
  13 H :    0.076536
  14 C :   -0.154541
  15 C :   -0.154541
  16 H :    0.075973
  17 H :    0.075973
  18 H :    0.079144
  19 H :    0.079144
Sum of atomic charges:    0.0000000

--------------------------------
MULLIKEN REDUCED ORBITAL CHARGES
--------------------------------
  0 C s       :     3.136816  s :     3.136816
      pz      :     0.993379  p :     2.867533
      px      :     0.929477
      py      :     0.944677
  1 C s       :     3.136816  s :     3.136816
      pz      :     0.993379  p :     2.867533
      px      :     0.929477
      py      :     0.944677
  2 C s       :     3.150953  s :     3.150953
      pz      :     1.001373  p :     2.925621
      px      :     0.950875
      py      :     0.973372
  3 C s       :     3.150953  s :     3.150953
      pz      :     1.001373  p :     2.925621
      px      :     0.950875
      py      :     0.973372
  4 C s       :     3.148727  s :     3.148727
      pz      :     1.000950  p :     2.928237
      px      :     0.961722
      py      :     0.965565
  5 C s       :     3.148727  s :     3.148727
      pz      :     1.000950  p :     2.928237
      px      :     0.961722
      py      :     0.965565
  6 H s       :     0.922170  s :     0.922170
  7 H s       :     0.922170  s :     0.922170
  8 H s       :     0.920833  s :     0.920833
  9 H s       :     0.920833  s :     0.920833
 10 C s       :     3.153878  s :     3.153878
      pz      :     0.997926  p :     2.922344
      px      :     0.935604
      py      :     0.988814
 11 C s       :     3.153878  s :     3.153878
      pz      :     0.997926  p :     2.922344
      px      :     0.935604
      py      :     0.988814
 12 H s       :     0.923464  s :     0.923464
 13 H s       :     0.923464  s :     0.923464
 14 C s       :     3.168936  s :     3.168936
      pz      :     1.006372  p :     2.985605
      px      :     0.987988
      py      :     0.991246
 15 C s       :     3.168936  s :     3.168936
      pz      :     1.006372  p :     2.985605
      px      :     0.987988
      py      :     0.991246
 16 H s       :     0.924027  s :     0.924027
 17 H s       :     0.924027  s :     0.924027
 18 H s       :     0.920856  s :     0.920856
 19 H s       :     0.920856  s :     0.920856


                     *******************************
                     * LOEWDIN POPULATION ANALYSIS *
                     *******************************

----------------------
LOEWDIN ATOMIC CHARGES
----------------------
   0 C :    0.003771
   1 C :    0.003771
   2 C :   -0.043822
   3 C :   -0.043822
   4 C :   -0.044099
   5 C :   -0.044099
   6 H :    0.042102
   7 H :    0.042102
   8 H :    0.043642
   9 H :    0.043642
  10 C :   -0.038889
  11 C :   -0.038889
  12 H :    0.040930
  13 H :    0.040930
  14 C :   -0.091503
  15 C :   -0.091503
  16 H :    0.042936
  17 H :    0.042936
  18 H :    0.044932
  19 H :    0.044932

-------------------------------
LOEWDIN REDUCED ORBITAL CHARGES
-------------------------------
  0 C s       :     3.032305  s :     3.032305
      pz      :     0.992472  p :     2.963923
      px      :     0.975451
      py      :     0.996000
  1 C s       :     3.032305  s :     3.032305
      pz      :     0.992472  p :     2.963923
      px      :     0.975451
      py      :     0.996000
  2 C s       :     3.031796  s :     3.031796
      pz      :     1.001685  p :     3.012027
      px      :     1.003514
      py      :     1.006827
  3 C s       :     3.031796  s :     3.031796
      pz      :     1.001685  p :     3.012027
      px      :     1.003514
      py      :     1.006827
  4 C s       :     3.029450  s :     3.029450
      pz      :     1.001356  p :     3.014650
      px      :     1.007459
      py      :     1.005835
  5 C s       :     3.029450  s :     3.029450
      pz      :     1.001356  p :     3.014650
      px      :     1.007459
      py      :     1.005835
  6 H s       :     0.957898  s :     0.957898
  7 H s       :     0.957898  s :     0.957898
  8 H s       :     0.956358  s :     0.956358
  9 H s       :     0.956358  s :     0.956358
 10 C s       :     3.033555  s :     3.033555
      pz      :     0.997304  p :     3.005334
      px      :     0.986362
      py      :     1.021668
 11 C s       :     3.033555  s :     3.033555
      pz      :     0.997304  p :     3.005334
      px      :     0.986362
      py      :     1.021668
 12 H s       :     0.959070  s :     0.959070
 13 H s       :     0.959070  s :     0.959070
 14 C s       :     3.033129  s :     3.033129
      pz      :     1.007183  p :     3.058374
      px      :     1.025402
      py      :     1.025789
 15 C s       :     3.033129  s :     3.033129
      pz      :     1.007183  p :     3.058374
      px      :     1.025402
      py      :     1.025789
 16 H s       :     0.957064  s :     0.957064
 17 H s       :     0.957064  s :     0.957064
 18 H s       :     0.955068  s :     0.955068
 19 H s       :     0.955068  s :     0.955068


                      *****************************
                      * MAYER POPULATION ANALYSIS *
                      *****************************

  NA   - Mulliken gross atomic population
  ZA   - Total nuclear charge
  QA   - Mulliken gross atomic charge
  VA   - Mayer's total valence
  BVA  - Mayer's bonded valence
  FA   - Mayer's free valence

  ATOM       NA         ZA         QA         VA         BVA        FA
  0 C      6.0043     6.0000    -0.0043     3.9731     3.9731     0.0000
  1 C      6.0043     6.0000    -0.0043     3.9731     3.9731     0.0000
  2 C      6.0766     6.0000    -0.0766     3.9692     3.9692     0.0000
  3 C      6.0766     6.0000    -0.0766     3.9692     3.9692     0.0000
  4 C      6.0770     6.0000    -0.0770     3.9701     3.9701     0.0000
  5 C      6.0770     6.0000    -0.0770     3.9701     3.9701     0.0000
  6 H      0.9222     1.0000     0.0778     0.9939     0.9939     0.0000
  7 H      0.9222     1.0000     0.0778     0.9939     0.9939     0.0000
  8 H      0.9208     1.0000     0.0792     0.9937     0.9937     0.0000
  9 H      0.9208     1.0000     0.0792     0.9937     0.9937     0.0000
 10 C      6.0762     6.0000    -0.0762     3.9681     3.9681     0.0000
 11 C      6.0762     6.0000    -0.0762     3.9681     3.9681     0.0000
 12 H      0.9235     1.0000     0.0765     0.9941     0.9941    -0.0000
 13 H      0.9235     1.0000     0.0765     0.9941     0.9941    -0.0000
 14 C      6.1545     6.0000    -0.1545     3.9648     3.9648    -0.0000
 15 C      6.1545     6.0000    -0.1545     3.9648     3.9648    -0.0000
 16 H      0.9240     1.0000     0.0760     0.9942     0.9942     0.0000
 17 H      0.9240     1.0000     0.0760     0.9942     0.9942     0.0000
 18 H      0.9209     1.0000     0.0791     0.9937     0.9937     0.0000
 19 H      0.9209     1.0000     0.0791     0.9937     0.9937     0.0000

  Mayer bond orders larger than 0.100000
B(  0-C ,  2-C ) :   1.3631 B(  0-C ,  5-C ) :   1.3652 B(  0-C , 11-C ) :   1.0664 
B(  1-C ,  3-C ) :   1.3631 B(  1-C ,  4-C ) :   1.3652 B(  1-C , 10-C ) :   1.0664 
B(  2-C ,  4-C ) :   1.4652 B(  2-C ,  6-H ) :   0.9614 B(  3-C ,  5-C ) :   1.4652 
B(  3-C ,  7-H ) :   0.9614 B(  4-C ,  5-C ) :   0.1022 B(  4-C ,  8-H ) :   0.9595 
B(  5-C ,  9-H ) :   0.9595 B( 10-C , 12-H ) :   0.9592 B( 10-C , 14-C ) :   1.9013 
B( 11-C , 13-H ) :   0.9592 B( 11-C , 15-C ) :   1.9013 B( 14-C , 16-H ) :   0.9664 
B( 14-C , 18-H ) :   0.9693 B( 15-C , 17-H ) :   0.9664 B( 15-C , 19-H ) :   0.9693 


-------
TIMINGS
-------

Total SCF time: 0 days 0 hours 0 min 24 sec 

Total time                  ....      24.792 sec
Sum of individual times     ....      18.526 sec  ( 74.7%)

Fock matrix formation       ....      12.820 sec  ( 51.7%)
  XC integration            ....       8.331 sec  ( 65.0% of F)
    Basis function eval.    ....       1.919 sec  ( 23.0% of XC)
    Density eval.           ....       0.453 sec  (  5.4% of XC)
    XC-Functional eval.     ....       4.207 sec  ( 50.5% of XC)
    XC-Potential eval.      ....       0.254 sec  (  3.0% of XC)
Diagonalization             ....       0.009 sec  (  0.0%)
Density matrix formation    ....       0.001 sec  (  0.0%)
Population analysis         ....       0.004 sec  (  0.0%)
Initial guess               ....       1.915 sec  (  7.7%)
Orbital Transformation      ....       0.000 sec  (  0.0%)
Orbital Orthonormalization  ....       0.000 sec  (  0.0%)
DIIS solution               ....       0.007 sec  (  0.0%)
SOSCF solution              ....       0.008 sec  (  0.0%)
Grid generation             ....       3.762 sec  ( 15.2%)

Maximum memory used throughout the entire SCF-calculation: 231.5 MB

-------------------------   --------------------
FINAL SINGLE POINT ENERGY      -382.050692200796
-------------------------   --------------------


                            ***************************************
                            *     ORCA property calculations      *
                            ***************************************

                                    ---------------------
                                    Active property flags
                                    ---------------------
   (+) Dipole Moment


------------------------------------------------------------------------------
                       ORCA ELECTRIC PROPERTIES CALCULATION
------------------------------------------------------------------------------

Dipole Moment Calculation                       ... on
Quadrupole Moment Calculation                   ... off
Polarizability Calculation                      ... off
GBWName                                         ... dvb_td.gbw
Electron density                                ... dvb_td.scfp
The origin for moment calculation is the CENTER OF MASS  = ( 0.000000,  0.000000  0.000000)

-------------
DIPOLE MOMENT
-------------
                                X             Y             Z
Electronic contribution:      0.00000       0.00000       0.00000
Nuclear contribution   :      0.00000       0.00000       0.00000
                        -----------------------------------------
Total Dipole Moment    :      0.00000       0.00000       0.00000
                        -----------------------------------------
Magnitude (a.u.)       :      0.00000
Magnitude (Debye)      :      0.00000



--------------------
Rotational spectrum 
--------------------
 
Rotational constants in cm-1:     0.153923     0.022856     0.019901 
Rotational constants in MHz :  4614.498453   685.205599   596.614480 

 Dipole components along the rotational axes: 
x,y,z [a.u.] :    -0.000000     0.000000     0.000000 
x,y,z [Debye]:    -0.000000     0.000000     0.000000 

 
--------------------------------------------------------------------------
WARNING: There was an error initializing an OpenFabrics device.

  Local host:   kennedy120
  Local device: mlx5_0
--------------------------------------------------------------------------
[kennedy120:05160] 1 more process has sent help message help-mpi-btl-openib.txt / error in device init
[kennedy120:05160] Set MCA parameter "orte_base_help_aggregate" to 0 to see all help / error messages

Timings for individual modules:

Sum of individual times         ...       44.734 sec (=   0.746 min)
GTO integral calculation        ...       16.797 sec (=   0.280 min)  37.5 %
SCF iterations                  ...       27.938 sec (=   0.466 min)  62.5 %
                             ****ORCA TERMINATED NORMALLY****
TOTAL RUN TIME: 0 days 0 hours 0 minutes 55 seconds 336 msec
