
                                        *****************
                                        * O   R   C   A *
                                        *****************

                                            #,                                       
                                            ###                                      
                                            ####                                     
                                            #####                                    
                                            ######                                   
                                           ########,                                 
                                     ,,################,,,,,                         
                               ,,#################################,,                 
                          ,,##########################################,,             
                       ,#########################################, ''#####,          
                    ,#############################################,,   '####,        
                  ,##################################################,,,,####,       
                ,###########''''           ''''###############################       
              ,#####''   ,,,,##########,,,,          '''####'''          '####       
            ,##' ,,,,###########################,,,                        '##       
           ' ,,###''''                  '''############,,,                           
         ,,##''                                '''############,,,,        ,,,,,,###''
      ,#''                                            '''#######################'''  
     '                                                          ''''####''''         
             ,#######,   #######,   ,#######,      ##                                
            ,#'     '#,  ##    ##  ,#'     '#,    #''#        ######   ,####,        
            ##       ##  ##   ,#'  ##            #'  '#       #        #'  '#        
            ##       ##  #######   ##           ,######,      #####,   #    #        
            '#,     ,#'  ##    ##  '#,     ,#' ,#      #,         ##   #,  ,#        
             '#######'   ##     ##  '#######'  #'      '#     #####' # '####'        



                  #######################################################
                  #                        -***-                        #
                  #          Department of theory and spectroscopy      #
                  #    Directorship and core code : Frank Neese         #
                  #        Max Planck Institute fuer Kohlenforschung    #
                  #                Kaiser Wilhelm Platz 1               #
                  #                 D-45470 Muelheim/Ruhr               #
                  #                      Germany                        #
                  #                                                     #
                  #                  All rights reserved                #
                  #                        -***-                        #
                  #######################################################


                         Program Version 5.0.0 -  RELEASE  -
                                (SVN: $Rev: 19529$)
                ($Date: 2021-06-28 11:36:33 +0200 (Mo, 28 Jun 2021) $)


 With contributions from (in alphabetic order):
   Daniel Aravena         : Magnetic Suceptibility
   Michael Atanasov       : Ab Initio Ligand Field Theory (pilot matlab implementation)
   Alexander A. Auer      : GIAO ZORA, VPT2 properties, NMR spectrum
   Ute Becker             : Parallelization
   Giovanni Bistoni       : ED, misc. LED, open-shell LED, HFLD
   Martin Brehm           : Molecular dynamics
   Dmytro Bykov           : SCF Hessian
   Vijay G. Chilkuri      : MRCI spin determinant printing, contributions to CSF-ICE
   Dipayan Datta          : RHF DLPNO-CCSD density
   Achintya Kumar Dutta   : EOM-CC, STEOM-CC
   Dmitry Ganyushin       : Spin-Orbit,Spin-Spin,Magnetic field MRCI
   Miquel Garcia          : C-PCM Hessian, Gaussian charge scheme
   Yang Guo               : DLPNO-NEVPT2, F12-NEVPT2, CIM, IAO-localization
   Andreas Hansen         : Spin unrestricted coupled pair/coupled cluster methods
   Benjamin Helmich-Paris : MC-RPA, TRAH-SCF, COSX integrals
   Lee Huntington         : MR-EOM, pCC
   Robert Izsak           : Overlap fitted RIJCOSX, COSX-SCS-MP3, EOM
   Marcus Kettner         : VPT2
   Christian Kollmar      : KDIIS, OOCD, Brueckner-CCSD(T), CCSD density, CASPT2, CASPT2-K
   Simone Kossmann        : Meta GGA functionals, TD-DFT gradient, OOMP2, MP2 Hessian
   Martin Krupicka        : Initial AUTO-CI
   Lucas Lang             : DCDCAS
   Marvin Lechner         : AUTO-CI (C++ implementation), FIC-MRCC
   Dagmar Lenk            : GEPOL surface, SMD
   Dimitrios Liakos       : Extrapolation schemes; Compound Job, initial MDCI parallelization
   Dimitrios Manganas     : Further ROCIS development; embedding schemes
   Dimitrios Pantazis     : SARC Basis sets
   Anastasios Papadopoulos: AUTO-CI, single reference methods and gradients
   Taras Petrenko         : DFT Hessian,TD-DFT gradient, ASA, ECA, R-Raman, ABS, FL, XAS/XES, NRVS
   Peter Pinski           : DLPNO-MP2, DLPNO-MP2 Gradient
   Christoph Reimann      : Effective Core Potentials
   Marius Retegan         : Local ZFS, SOC
   Christoph Riplinger    : Optimizer, TS searches, QM/MM, DLPNO-CCSD(T), (RO)-DLPNO pert. Triples
   Tobias Risthaus        : Range-separated hybrids, TD-DFT gradient, RPA, STAB
   Michael Roemelt        : Original ROCIS implementation
   Masaaki Saitow         : Open-shell DLPNO-CCSD energy and density
   Barbara Sandhoefer     : DKH picture change effects
   Avijit Sen             : IP-ROCIS
   Kantharuban Sivalingam : CASSCF convergence, NEVPT2, FIC-MRCI
   Bernardo de Souza      : ESD, SOC TD-DFT
   Georgi Stoychev        : AutoAux, RI-MP2 NMR
   Willem Van den Heuvel  : Paramagnetic NMR
   Boris Wezisla          : Elementary symmetry handling
   Frank Wennmohs         : Technical directorship


 We gratefully acknowledge several colleagues who have allowed us to
 interface, adapt or use parts of their codes:
   Stefan Grimme, W. Hujo, H. Kruse, P. Pracht,  : VdW corrections, initial TS optimization,
                  C. Bannwarth, S. Ehlert          DFT functionals, gCP, sTDA/sTD-DF
   Ed Valeev, F. Pavosevic, A. Kumar             : LibInt (2-el integral package), F12 methods
   Garnet Chan, S. Sharma, J. Yang, R. Olivares  : DMRG
   Ulf Ekstrom                                   : XCFun DFT Library
   Mihaly Kallay                                 : mrcc  (arbitrary order and MRCC methods)
   Jiri Pittner, Ondrej Demel                    : Mk-CCSD
   Frank Weinhold                                : gennbo (NPA and NBO analysis)
   Christopher J. Cramer and Donald G. Truhlar   : smd solvation model
   Lars Goerigk                                  : TD-DFT with DH, B97 family of functionals
   V. Asgeirsson, H. Jonsson                     : NEB implementation
   FAccTs GmbH                                   : IRC, NEB, NEB-TS, DLPNO-Multilevel, CI-OPT
                                                   MM, QMMM, 2- and 3-layer-ONIOM, Crystal-QMMM,
                                                   LR-CPCM, SF, NACMEs, symmetry and pop. for TD-DFT,
                                                   nearIR, NL-DFT gradient (VV10), updates on ESD,
                                                   ML-optimized integration grids
   S Lehtola, MJT Oliveira, MAL Marques          : LibXC Library
   Liviu Ungur et al                             : ANISO software


 Your calculation uses the libint2 library for the computation of 2-el integrals
 For citations please refer to: http://libint.valeyev.net

 Your ORCA version has been built with support for libXC version: 5.1.0
 For citations please refer to: https://tddft.org/programs/libxc/

 This ORCA versions uses:
   CBLAS   interface :  Fast vector & matrix operations
   LAPACKE interface :  Fast linear algebra routines
   SCALAPACK package :  Parallel linear algebra routines
   Shared memory     :  Shared parallel matrices
   BLAS/LAPACK       :  OpenBLAS 0.3.15  USE64BITINT DYNAMIC_ARCH NO_AFFINITY Zen SINGLE_THREADED
        Core in use  :  Zen
   Copyright (c) 2011-2014, The OpenBLAS Project


================================================================================

----- Orbital basis set information -----
Your calculation utilizes the basis: STO-3G
   H-Ne       : W. J. Hehre, R. F. Stewart and J. A. Pople, J. Chem. Phys. 2657 (1969).
   Na-Ar      : W. J. Hehre, R. Ditchfield, R. F. Stewart and J. A. Pople, J. Chem. Phys. 2769 (1970).
   K,Ca,Ga-Kr : W. J. Pietro, B. A. Levy, W. J. Hehre and R. F. Stewart, J. Am. Chem. Soc. 19, 2225 (1980).
   Sc-Zn,Y-Cd : W. J. Pietro and W. J. Hehre, J. Comp. Chem. 4, 241 (1983).

----- AuxJ basis set information -----
Your calculation utilizes the auxiliary basis: def2/J
   F. Weigend, Phys. Chem. Chem. Phys. 8, 1057 (2006).

================================================================================
                                        WARNINGS
                       Please study these warnings very carefully!
================================================================================


INFO   : the flag for use of the SHARK integral package has been found!

================================================================================
                                       INPUT FILE
================================================================================
NAME = dvb_scan_unrelaxed.inp
|  1> ! rks b3lyp STO-3G noautostart
|  2> 
|  3> %output
|  4>  printlevel normal
|  5>  print[ p_basis ] 2
|  6>  print[ p_mos ] 1
|  7> end
|  8> 
|  9> %paras 
| 10>    B1    =        1.39155762
| 11>    B2    =        1.38920112
| 12>    B3    =        1.36617670
| 13>    B4    =        1.39155762
| 14>    B5    =        1.09491754
| 15>    B6    =        1.09598547
| 16>    B7    =        1.09491754
| 17>    B8    =        1.48585283
| 18>    B9    =        1.34292581
| 19>    B10   =        1.10354826
| 20>    B11   =        1.09829801
| 21>    B12   =        1.07000000
| 22>    B13   =        1.48585283
| 23>    B14   =        1.09829801
| 24>    B15   =        1.34292581
| 25>    B16   =        1.10354826
| 26>    B17   =        1.07000000
| 27>    B18   =        1.38920112
| 28>    B19   =        1.09598547
| 29>    A1    =      120.26061806
| 30>    A2    =      119.60307576
| 31>    A3    =      120.13630618
| 32>    A4    =      119.89927090
| 33>    A5    =      119.94428410
| 34>    A6    =      119.89927090
| 35>    A7    =      119.97332138
| 36>    A8    =      123.60169362
| 37>    A9    =      119.56877435
| 38>    A10   =      115.51294680
| 39>    A11   =      122.34164357
| 40>    A12   =      119.89037245
| 41>    A13   =      115.51294680
| 42>    A14   =      123.60169362
| 43>    A15   =      119.56877435
| 44>    A16   =      122.34164357
| 45>    A17   =      120.26061806
| 46>    A18   =      119.94428410
| 47>    D1    =        0.00000000
| 48>    D2    =        0.00000000
| 49>    D3    =      180.00000000
| 50>    D4    =      180.00000000
| 51>    D5    =      180.00000000
| 52>    D6    =      180.00000000
| 53>    D7    =    0.0, 360.0, 12
| 54>    D8    =        0.00000000
| 55>    D9    =        0.00000000
| 56>    D10   =      180.00000000
| 57>    D11   =      180.00000000
| 58>    D12   =      180.00000000
| 59>    D13   =        0.00000000
| 60>    D14   =        0.00000000
| 61>    D15   =      180.00000000
| 62>    D16   =        0.00000000
| 63>    D17   =      180.00000000
| 64> end
| 65> 
| 66> *int 0 1
| 67>  C                  0    0    0       0.0                  0.0                   0.0
| 68>  C                  1    0    0       {B1}                 0.0                   0.0
| 69>  C                  2    1    0       {B2}                 {A1}                  0.0
| 70>  C                  3    2    1       {B3}                 {A2}                  {D1}
| 71>  C                  4    3    2       {B4}                 {A3}                  {D2}
| 72>  H                  2    1    5       {B5}                 {A4}                  {D3}
| 73>  H                  3    2    1       {B6}                 {A5}                  {D4}
| 74>  H                  5    4    3       {B7}                 {A6}                  {D5}
| 75>  C                  4    3    2       {B8}                 {A7}                  {D6}
| 76>  C                  9    4    3       {B9}                 {A8}                  {D7}
| 77>  H                 10    9    4      {B10}                 {A9}                  {D8}
| 78>  H                  9    4    3      {B11}                {A10}                  {D9}
| 79>  H                 10    9    4      {B12}                {A11}                 {D10}
| 80>  C                  1    2    3      {B13}                {A12}                 {D11}
| 81>  H                 14    1    2      {B14}                {A13}                 {D12}
| 82>  C                 14    1    2      {B15}                {A14}                 {D13}
| 83>  H                 16   14    1      {B16}                {A15}                 {D14}
| 84>  H                 16   14    1      {B17}                {A16}                 {D15}
| 85>  C                  5    4    3      {B18}                {A17}                 {D16}
| 86>  H                 19    5    4      {B19}                {A18}                 {D17}
| 87> *
| 88> 
| 89>                          ****END OF INPUT****
================================================================================

                       ******************************
                       * Parameter Scan Calculation *
                       ******************************

Trajectory settings:
    -> SCF surface will be mapped

There are 1 parameter(s) to be scanned
            D7: range=   0.00000000 .. 360.00000000  steps=   12
There will be   12 energy evaluations


         *************************************************************
                                TRAJECTORY STEP   1
                 D7  :   0.00000000
         *************************************************************
---------------------------------
CARTESIAN COORDINATES (ANGSTROEM)
---------------------------------
  C      0.000000    0.000000    0.000000
  C      1.391558    0.000000    0.000000
  C      2.091623    1.199912    0.000000
  C      1.405722    2.381427    0.000000
  C      0.014165    2.381427    0.000000
  H      1.937349   -0.949187    0.000000
  H      3.187592    1.193861    0.000000
  H     -0.531626    3.330614    0.000000
  C      2.146185    3.669632    0.000000
  C      3.486295    3.756559    0.000000
  H      4.091847    2.833995    0.000000
  H      3.241279    3.585803    0.000000
  H      3.998992    4.695730    0.000000
  C     -0.740463   -1.288205   -0.000000
  H     -1.835557   -1.204377   -0.000000
  C     -0.141086   -2.489953   -0.000000
  H      0.960888   -2.548878   -0.000000
  H     -0.694583   -3.405672   -0.000000
  C     -0.685901    1.181515    0.000000
  H     -1.781870    1.187566    0.000000

----------------------------
CARTESIAN COORDINATES (A.U.)
----------------------------
  NO LB      ZA    FRAG     MASS         X           Y           Z
   0 C     6.0000    0    12.011    0.000000    0.000000    0.000000
   1 C     6.0000    0    12.011    2.629663    0.000000    0.000000
   2 C     6.0000    0    12.011    3.952595    2.267504    0.000000
   3 C     6.0000    0    12.011    2.656430    4.500245    0.000000
   4 C     6.0000    0    12.011    0.026767    4.500245    0.000000
   5 H     1.0000    0     1.008    3.661058   -1.793704    0.000000
   6 H     1.0000    0     1.008    6.023676    2.256069    0.000000
   7 H     1.0000    0     1.008   -1.004628    6.293949    0.000000
   8 C     6.0000    0    12.011    4.055702    6.934600    0.000000
   9 C     6.0000    0    12.011    6.588142    7.098868    0.000000
  10 H     1.0000    0     1.008    7.732471    5.355474    0.000000
  11 H     1.0000    0     1.008    6.125130    6.776186    0.000000
  12 H     1.0000    0     1.008    7.557000    8.873643    0.000000
  13 C     6.0000    0    12.011   -1.399272   -2.434355   -0.000000
  14 H     1.0000    0     1.008   -3.468700   -2.275942   -0.000000
  15 C     6.0000    0    12.011   -0.266614   -4.705329   -0.000000
  16 H     1.0000    0     1.008    1.815815   -4.816682   -0.000000
  17 H     1.0000    0     1.008   -1.312571   -6.435787   -0.000000
  18 C     6.0000    0    12.011   -1.296165    2.232740    0.000000
  19 H     1.0000    0     1.008   -3.367246    2.244175    0.000000

--------------------------------
INTERNAL COORDINATES (ANGSTROEM)
--------------------------------
 C      0   0   0     0.000000000000     0.00000000     0.00000000
 C      1   0   0     1.391557620000     0.00000000     0.00000000
 C      2   1   0     1.389201120000   120.26061806     0.00000000
 C      3   2   1     1.366176700000   119.60307576     0.00000000
 C      4   3   2     1.391557620000   120.13630618     0.00000000
 H      2   1   5     1.094917540000   119.89927090   180.00000000
 H      3   2   1     1.095985470000   119.94428410   180.00000000
 H      5   4   3     1.094917540000   119.89927090   180.00000000
 C      4   3   2     1.485852830000   119.97332138   180.00000000
 C      9   4   3     1.342925810000   123.60169362     0.00000000
 H     10   9   4     1.103548260000   119.56877435     0.00000000
 H      9   4   3     1.098298010000   115.51294680     0.00000000
 H     10   9   4     1.070000000000   122.34164357   180.00000000
 C      1   2   3     1.485852830000   119.89037245   180.00000000
 H     14   1   2     1.098298010000   115.51294680   180.00000000
 C     14   1   2     1.342925810000   123.60169362     0.00000000
 H     16  14   1     1.103548260000   119.56877435     0.00000000
 H     16  14   1     1.070000000000   122.34164357   180.00000000
 C      5   4   3     1.389201120000   120.26061806     0.00000000
 H     19   5   4     1.095985470000   119.94428410   180.00000000

---------------------------
INTERNAL COORDINATES (A.U.)
---------------------------
 C      0   0   0     0.000000000000     0.00000000     0.00000000
 C      1   0   0     2.629662801371     0.00000000     0.00000000
 C      2   1   0     2.625209661737   120.26061806     0.00000000
 C      3   2   1     2.581699813544   119.60307576     0.00000000
 C      4   3   2     2.629662801371   120.13630618     0.00000000
 H      2   1   5     2.069094289827   119.89927090   180.00000000
 H      3   2   1     2.071112385057   119.94428410   180.00000000
 H      5   4   3     2.069094289827   119.89927090   180.00000000
 C      4   3   2     2.807854924012   119.97332138   180.00000000
 C      9   4   3     2.537761999074   123.60169362     0.00000000
 H     10   9   4     2.085403986965   119.56877435     0.00000000
 H      9   4   3     2.075482452331   115.51294680     0.00000000
 H     10   9   4     2.022006963296   122.34164357   180.00000000
 C      1   2   3     2.807854924012   119.89037245   180.00000000
 H     14   1   2     2.075482452331   115.51294680   180.00000000
 C     14   1   2     2.537761999074   123.60169362     0.00000000
 H     16  14   1     2.085403986965   119.56877435     0.00000000
 H     16  14   1     2.022006963296   122.34164357   180.00000000
 C      5   4   3     2.625209661737   120.26061806     0.00000000
 H     19   5   4     2.071112385057   119.94428410   180.00000000

---------------------
BASIS SET INFORMATION
---------------------
There are 2 groups of distinct atoms

 Group   1 Type C   : 6s3p contracted to 2s1p pattern {33/3}
 Group   2 Type H   : 3s contracted to 1s pattern {3}

Atom   0C    basis set group =>   1
Atom   1C    basis set group =>   1
Atom   2C    basis set group =>   1
Atom   3C    basis set group =>   1
Atom   4C    basis set group =>   1
Atom   5H    basis set group =>   2
Atom   6H    basis set group =>   2
Atom   7H    basis set group =>   2
Atom   8C    basis set group =>   1
Atom   9C    basis set group =>   1
Atom  10H    basis set group =>   2
Atom  11H    basis set group =>   2
Atom  12H    basis set group =>   2
Atom  13C    basis set group =>   1
Atom  14H    basis set group =>   2
Atom  15C    basis set group =>   1
Atom  16H    basis set group =>   2
Atom  17H    basis set group =>   2
Atom  18C    basis set group =>   1
Atom  19H    basis set group =>   2

-------------------------
BASIS SET IN INPUT FORMAT
-------------------------

 # Basis set for element : H 
 NewGTO H 
 S 3 
   1       3.4252509100      0.1543289707
   2       0.6239137300      0.5353281424
   3       0.1688554000      0.4446345420
  end;

 # Basis set for element : C 
 NewGTO C 
 S 3 
   1      71.6168370000      0.1543289700
   2      13.0450960000      0.5353281400
   3       3.5305122000      0.4446345400
 S 3 
   1       2.9412494000     -0.0999672301
   2       0.6834831000      0.3995128303
   3       0.2222899000      0.7001154705
 P 3 
   1       2.9412494000      0.1559162721
   2       0.6834831000      0.6076837282
   3       0.2222899000      0.3919573953
  end;

---------------------------------
AUXILIARY/J BASIS SET INFORMATION
---------------------------------
There are 2 groups of distinct atoms

 Group   1 Type C   : 12s5p4d2f1g contracted to 6s4p3d1f1g pattern {711111/2111/211/2/1}
 Group   2 Type H   : 5s2p1d contracted to 3s1p1d pattern {311/2/1}

Atom   0C    basis set group =>   1
Atom   1C    basis set group =>   1
Atom   2C    basis set group =>   1
Atom   3C    basis set group =>   1
Atom   4C    basis set group =>   1
Atom   5H    basis set group =>   2
Atom   6H    basis set group =>   2
Atom   7H    basis set group =>   2
Atom   8C    basis set group =>   1
Atom   9C    basis set group =>   1
Atom  10H    basis set group =>   2
Atom  11H    basis set group =>   2
Atom  12H    basis set group =>   2
Atom  13C    basis set group =>   1
Atom  14H    basis set group =>   2
Atom  15C    basis set group =>   1
Atom  16H    basis set group =>   2
Atom  17H    basis set group =>   2
Atom  18C    basis set group =>   1
Atom  19H    basis set group =>   2

-------------------------------------
AUXILIARY/J BASIS SET IN INPUT FORMAT
-------------------------------------

 # Auxiliary/J basis set for element : H 
 NewAuxJGTO H 
 S 3 
   1      15.6752927000      0.1007184237
   2       3.6063578000      0.3404257499
   3       1.2080016000      0.6491996172
 S 1 
   1       0.4726794000      1.0000000000
 S 1 
   1       0.2018100000      1.0000000000
 P 2 
   1       2.0281365000      0.5596620919
   2       0.5358730000      0.5596620919
 D 1 
   1       2.2165124000      1.0000000000
  end;

 # Auxiliary/J basis set for element : C 
 NewAuxJGTO C 
 S 7 
   1    1861.0916331000      0.0134602335
   2     642.9939764000      0.0299160374
   3     235.1105725000      0.1008649584
   4      90.7028894000      0.2370970548
   5      36.7794552000      0.3924037254
   6      15.6046273000      0.3195862154
   7       6.8907294000      0.0530104441
 S 1 
   1       3.1478850000     -1.0000000000
 S 1 
   1       1.4777287000      1.0000000000
 S 1 
   1       0.7076466000      1.0000000000
 S 1 
   1       0.3430122000      1.0000000000
 S 1 
   1       0.1669453000      1.0000000000
 P 2 
   1      13.5472892000     -0.6769313712
   2       5.4669419000     -0.3779500978
 P 1 
   1       2.1751721000      1.0000000000
 P 1 
   1       0.8582194000      1.0000000000
 P 1 
   1       0.3376720000      1.0000000000
 D 2 
   1       5.9287253000     -0.3533329857
   2       1.9809209000     -0.7456525731
 D 1 
   1       0.8055417000     -1.0000000000
 D 1 
   1       0.3531244000     -1.0000000000
 F 2 
   1       1.6755626000      0.6311076882
   2       0.5997536000      0.4968166032
 G 1 
   1       1.0024600000     -1.0000000000
  end;

------------------------------------------------------------------------------
                           ORCA GTO INTEGRAL CALCULATION
                           -- RI-GTO INTEGRALS CHOSEN --
------------------------------------------------------------------------------
------------------------------------------------------------------------------
                   ___                                                        
                  /   \      - P O W E R E D   B Y -                         
                 /     \                                                     
                 |  |  |   _    _      __       _____    __    __             
                 |  |  |  | |  | |    /  \     |  _  \  |  |  /  |          
                  \  \/   | |  | |   /    \    | | | |  |  | /  /          
                 / \  \   | |__| |  /  /\  \   | |_| |  |  |/  /          
                |  |  |   |  __  | /  /__\  \  |    /   |      \           
                |  |  |   | |  | | |   __   |  |    \   |  |\   \          
                \     /   | |  | | |  |  |  |  | |\  \  |  | \   \       
                 \___/    |_|  |_| |__|  |__|  |_| \__\ |__|  \__/        
                                                                              
                      - O R C A' S   B I G   F R I E N D -                    
                                      &                                       
                       - I N T E G R A L  F E E D E R -                       
                                                                              
 v1 FN, 2020, v2 2021                                                         
------------------------------------------------------------------------------


Reading SHARK input file dvb_scan_unrelaxed.SHARKINP.tmp ... ok
----------------------
SHARK INTEGRAL PACKAGE
----------------------

Number of atoms                             ...     20
Number of basis functions                   ...     60
Number of shells                            ...     40
Maximum angular momentum                    ...      1
Integral batch strategy                     ... SHARK/LIBINT Hybrid
RI-J (if used) integral strategy            ... SPLIT-RIJ (Revised 2003 algorithm where possible)
Printlevel                                  ...      2
Contraction scheme used                     ... SEGMENTED contraction
Coulomb Range Separation                    ... NOT USED
Exchange Range Separation                   ... NOT USED
Finite Nucleus Model                        ... NOT USED
Auxiliary Coulomb fitting basis             ... AVAILABLE
   # of basis functions in Aux-J            ...    600
   # of shells in Aux-J                     ...    200
   Maximum angular momentum in Aux-J        ...      4
Auxiliary J/K fitting basis                 ... NOT available
Auxiliary Correlation fitting basis         ... NOT available
Auxiliary 'external' fitting basis          ... NOT available
Integral threshold                          ...     1.000000e-10
Primitive cut-off                           ...     1.000000e-11
Primitive pair pre-selection threshold      ...     1.000000e-11

Calculating pre-screening integrals         ... done (  0.1 sec) Dimension = 40
Organizing shell pair data                  ... done (  0.0 sec)
Shell pair information
Total number of shell pairs                 ...       820
Shell pairs after pre-screening             ...       760
Total number of primitive shell pairs       ...      7380
Primitive shell pairs kept                  ...      4874
          la=0 lb=0:    411 shell pairs
          la=1 lb=0:    294 shell pairs
          la=1 lb=1:     55 shell pairs

Calculating one electron integrals          ... done (  0.0 sec)
Calculating RI/J V-Matrix + Cholesky decomp.... done (  0.1 sec)
Calculating Nuclear repulsion               ... done (  0.0 sec) ENN=    465.089018243124 Eh

SHARK setup successfully completed in   0.2 seconds

Maximum memory used throughout the entire GTOINT-calculation: 10.0 MB
-------------------------------------------------------------------------------
                                 ORCA SCF
-------------------------------------------------------------------------------

------------
SCF SETTINGS
------------
Hamiltonian:
 Density Functional     Method          .... DFT(GTOs)
 Exchange Functional    Exchange        .... B88
   X-Alpha parameter    XAlpha          ....  0.666667
   Becke's b parameter  XBeta           ....  0.004200
 Correlation Functional Correlation     .... LYP
 LDA part of GGA corr.  LDAOpt          .... VWN-5
 Gradients option       PostSCFGGA      .... off
 Hybrid DFT is turned on
   Fraction HF Exchange ScalHFX         ....  0.200000
   Scaling of DF-GGA-X  ScalDFX         ....  0.720000
   Scaling of DF-GGA-C  ScalDFC         ....  0.810000
   Scaling of DF-LDA-C  ScalLDAC        ....  1.000000
   Perturbative correction              ....  0.000000
   Density functional embedding theory  .... OFF
   NL short-range parameter             ....  4.800000
 RI-approximation to the Coulomb term is turned on
   Number of AuxJ basis functions       .... 600
   RIJ-COSX (HFX calculated with COS-X)).... on


General Settings:
 Integral files         IntName         .... dvb_scan_unrelaxed
 Hartree-Fock type      HFTyp           .... RHF
 Total Charge           Charge          ....    0
 Multiplicity           Mult            ....    1
 Number of Electrons    NEL             ....   70
 Basis Dimension        Dim             ....   60
 Nuclear Repulsion      ENuc            ....    465.0890182431 Eh

Convergence Acceleration:
 DIIS                   CNVDIIS         .... on
   Start iteration      DIISMaxIt       ....    12
   Startup error        DIISStart       ....  0.200000
   # of expansion vecs  DIISMaxEq       ....     5
   Bias factor          DIISBfac        ....   1.050
   Max. coefficient     DIISMaxC        ....  10.000
 Trust-Rad. Augm. Hess. CNVTRAH         .... auto
   Auto Start mean grad. ratio tolernc. ....  1.125000
   Auto Start start iteration           ....    20
   Auto Start num. interpolation iter.  ....    10
   Max. Number of Micro iterations      ....    16
   Max. Number of Macro iterations      .... Maxiter - #DIIS iter
   Number of Davidson start vectors     ....     2
   Converg. threshold I  (grad. norm)   ....   5.000e-05
   Converg. threshold II (energy diff.) ....   1.000e-06
   Grad. Scal. Fac. for Micro threshold ....   0.100
   Minimum threshold for Micro iter.    ....   0.010
   NR start threshold (gradient norm)   ....   0.001
   Initial trust radius                 ....   0.400
   Minimum AH scaling param. (alpha)    ....   1.000
   Maximum AH scaling param. (alpha)    .... 1000.000
   Orbital update algorithm             .... Taylor
   White noise on init. David. guess    .... on
   Maximum white noise                  ....   0.010
   Quad. conv. algorithm                .... NR
 SOSCF                  CNVSOSCF        .... on
   Start iteration      SOSCFMaxIt      ....   150
   Startup grad/error   SOSCFStart      ....  0.003300
 Level Shifting         CNVShift        .... on
   Level shift para.    LevelShift      ....    0.2500
   Turn off err/grad.   ShiftErr        ....    0.0010
 Zerner damping         CNVZerner       .... off
 Static damping         CNVDamp         .... on
   Fraction old density DampFac         ....    0.7000
   Max. Damping (<1)    DampMax         ....    0.9800
   Min. Damping (>=0)   DampMin         ....    0.0000
   Turn off err/grad.   DampErr         ....    0.1000
 Fernandez-Rico         CNVRico         .... off

SCF Procedure:
 Maximum # iterations   MaxIter         ....   125
 SCF integral mode      SCFMode         .... Direct
   Integral package                     .... SHARK and LIBINT hybrid scheme
 Reset frequency        DirectResetFreq ....    20
 Integral Threshold     Thresh          ....  1.000e-10 Eh
 Primitive CutOff       TCut            ....  1.000e-11 Eh

Convergence Tolerance:
 Convergence Check Mode ConvCheckMode   .... Total+1el-Energy
 Convergence forced     ConvForced      .... 0
 Energy Change          TolE            ....  1.000e-06 Eh
 1-El. energy change                    ....  1.000e-03 Eh
 Orbital Gradient       TolG            ....  5.000e-05
 Orbital Rotation angle TolX            ....  5.000e-05
 DIIS Error             TolErr          ....  1.000e-06


Diagonalization of the overlap matrix:
Smallest eigenvalue                        ... 9.768e-03
Time for diagonalization                   ...    0.031 sec
Threshold for overlap eigenvalues          ... 1.000e-08
Number of eigenvalues below threshold      ... 0
Time for construction of square roots      ...    0.007 sec
Total time needed                          ...    0.038 sec

----------------------
SHARK INTEGRAL PACKAGE
----------------------

Number of atoms                             ...     20
Number of basis functions                   ...     60
Number of shells                            ...     40
Maximum angular momentum                    ...      1
Integral batch strategy                     ... SHARK/LIBINT Hybrid
RI-J (if used) integral strategy            ... SPLIT-RIJ (Revised 2003 algorithm where possible)
Printlevel                                  ...      2
Contraction scheme used                     ... SEGMENTED contraction
Coulomb Range Separation                    ... NOT USED
Exchange Range Separation                   ... NOT USED
Finite Nucleus Model                        ... NOT USED
Auxiliary Coulomb fitting basis             ... AVAILABLE
   # of basis functions in Aux-J            ...    600
   # of shells in Aux-J                     ...    200
   Maximum angular momentum in Aux-J        ...      4
Auxiliary J/K fitting basis                 ... NOT available
Auxiliary Correlation fitting basis         ... NOT available
Auxiliary 'external' fitting basis          ... NOT available
Integral threshold                          ...     1.000000e-10
Primitive cut-off                           ...     1.000000e-11
Primitive pair pre-selection threshold      ...     1.000000e-11

Time for model grid setup =    0.205 sec

------------------------------
INITIAL GUESS: MODEL POTENTIAL
------------------------------
Loading Hartree-Fock densities                     ... done
Calculating cut-offs                               ... done
Initializing the effective Hamiltonian             ... done
Setting up the integral package (SHARK)            ... done
Starting the Coulomb interaction                   ...     -> Generating integrals - 
    -> L=0 0 :     0.032 sec done=     63100 skipped=      1180 prim-skipped=         0
    -> L=1 0 :     0.018 sec done=     45680 skipped=       530 prim-skipped=         0
    -> L=1 1 :     0.011 sec done=      8740 skipped=        30 prim-skipped=         0
done (   0.1 sec)
Reading the grid                                   ... done
Mapping shells                                     ... done
Starting the XC term evaluation                    ... done (   0.1 sec)
  promolecular density results
     # of electrons  =     69.994972111
     EX              =    -54.571037988
     EC              =     -2.316666440
     EX+EC           =    -56.887704427
Transforming the Hamiltonian                       ... done (   0.0 sec)
Diagonalizing the Hamiltonian                      ... done (   0.0 sec)
Back transforming the eigenvectors                 ... done (   0.0 sec)
Now organizing SCF variables                       ... done
                      ------------------
                      INITIAL GUESS DONE (   0.4 sec)
                      ------------------
-------------------
DFT GRID GENERATION
-------------------

General Integration Accuracy     IntAcc      ... 4.388
Radial Grid Type                 RadialGrid  ... OptM3 with GC (2021)
Angular Grid (max. ang.)         AngularGrid ... 4 (Lebedev-302)
Angular grid pruning method      GridPruning ... 4 (adaptive)
Weight generation scheme         WeightScheme... Becke
Basis function cutoff            BFCut       ... 1.0000e-10
Integration weight cutoff        WCut        ... 1.0000e-14
Angular grids for H and He will be reduced by one unit
Partially contracted basis set               ... off
Rotationally invariant grid construction     ... off

Total number of grid points                  ...    91936
Total number of batches                      ...     1446
Average number of points per batch           ...       63
Average number of grid points per atom       ...     4597
Time for grid setup =    0.608 sec

--------------------
COSX GRID GENERATION
--------------------

GRIDX 1
-------
General Integration Accuracy     IntAcc      ... 3.816
Radial Grid Type                 RadialGrid  ... OptM3 with GC (2021)
Angular Grid (max. ang.)         AngularGrid ... 1 (Lebedev-50)
Angular grid pruning method      GridPruning ... 4 (adaptive)
Weight generation scheme         WeightScheme... Becke
Basis function cutoff            BFCut       ... 1.0000e-10
Integration weight cutoff        WCut        ... 1.0000e-14
Angular grids for H and He will be reduced by one unit
Partially contracted basis set               ... on
Rotationally invariant grid construction     ... off

Total number of grid points                  ...    11774
Total number of batches                      ...      191
Average number of points per batch           ...       61
Average number of grid points per atom       ...      589
UseSFitting                                  ... on

GRIDX 2
-------
General Integration Accuracy     IntAcc      ... 4.020
Radial Grid Type                 RadialGrid  ... OptM3 with GC (2021)
Angular Grid (max. ang.)         AngularGrid ... 2 (Lebedev-110)
Angular grid pruning method      GridPruning ... 4 (adaptive)
Weight generation scheme         WeightScheme... Becke
Basis function cutoff            BFCut       ... 1.0000e-10
Integration weight cutoff        WCut        ... 1.0000e-14
Angular grids for H and He will be reduced by one unit
Partially contracted basis set               ... on
Rotationally invariant grid construction     ... off

Total number of grid points                  ...    25354
Total number of batches                      ...      407
Average number of points per batch           ...       62
Average number of grid points per atom       ...     1268
UseSFitting                                  ... on

GRIDX 3
-------
General Integration Accuracy     IntAcc      ... 4.338
Radial Grid Type                 RadialGrid  ... OptM3 with GC (2021)
Angular Grid (max. ang.)         AngularGrid ... 3 (Lebedev-194)
Angular grid pruning method      GridPruning ... 4 (adaptive)
Weight generation scheme         WeightScheme... Becke
Basis function cutoff            BFCut       ... 1.0000e-10
Integration weight cutoff        WCut        ... 1.0000e-14
Angular grids for H and He will be reduced by one unit
Partially contracted basis set               ... on
Rotationally invariant grid construction     ... off

Total number of grid points                  ...    55667
Total number of batches                      ...      879
Average number of points per batch           ...       63
Average number of grid points per atom       ...     2783
UseSFitting                                  ... on

Time for X-Grid setup             =    0.559 sec

--------------
SCF ITERATIONS
--------------
               ***  Starting incremental Fock matrix formation  ***
==>> SHARK/AuxDens: NDens=1 Thresh =     1.000000e-10 TCut=    1.000000e-11 Lmax=1 LmaxAux=4
    -> Making Hermite density - ok     0.001 sec
    -> Making Aux-basis density - (lmax=1)
    -> L=0 0:    0.023 sec done=     74421 ( 91.0%) skipped=      7345 
    -> L=1 0:    0.028 sec done=     55540 ( 95.1%) skipped=      2860 
    -> L=1 1:    0.025 sec done=     11000 (100.0%) skipped=         0 
    -> Aux basis density formed in    0.1 sec
    -> Solving linear equations - ok (   0.0 sec)
        Auxbasis Hermite Density:
        P|s>                     ...  0.000
        P|p>                     ...  0.000
        P|d>                     ...  0.000
        P|f>                     ...  0.000
        P|g>                     ...  0.000
        Building the Coulomb matrix: 
        J|ss>                          ... done (  0.0 sec) ndone=   769286 nskipped1=     9224 nskipped2=    29826
        J|ps>                          ... done (  0.0 sec) ndone=   600269 nskipped1=     3428 nskipped2=    14486
        J|pp>                          ... done (  0.0 sec) ndone=   128205 nskipped1=       87 nskipped2=      970
        Coulomb matrix built in   0.1 sec

        Total time for Split-RI-J                ...    0.150 sec
          (0) Prelude                            ...    0.000 sec
          (1) Hermite density                    ...    0.000 sec
          (2) Aux basis density                  ...    0.000 sec (inner=  0.0)
          (3) Linear equation solution           ...    0.000 sec
          (4) J-Matrix construction              ...    0.070 sec (inner=  0.1)
        ---------------------------------------------------------

                         ----------------------------
                         !        ITERATION     0   !
                         ----------------------------
   Total Energy        :    -377.981175904476 Eh
   Energy Change       :    -377.981175904476 Eh
   MAX-DP              :       0.205268653243
   RMS-DP              :       0.007056988534
   Actual Damping      :       0.7000
   Actual Level Shift  :       0.2500 Eh
   Int. Num. El.       :    70.00005649 (UP=   35.00002825 DN=   35.00002825)
   Exchange            :   -44.29991620
   Correlation         :    -2.75330548

==>> SHARK/AuxDens: NDens=1 Thresh =     1.000000e-10 TCut=    1.000000e-11 Lmax=1 LmaxAux=4
    -> Making Hermite density - ok     0.001 sec
    -> Making Aux-basis density - (lmax=1)
    -> L=0 0:    0.022 sec done=     68834 ( 84.2%) skipped=     12932 
    -> L=1 0:    0.028 sec done=     53441 ( 91.5%) skipped=      4959 
    -> L=1 1:    0.010 sec done=     10731 ( 97.6%) skipped=       269 
    -> Aux basis density formed in    0.1 sec
    -> Solving linear equations - ok (   0.0 sec)
        Auxbasis Hermite Density:
        P|s>                     ...  0.000
        P|p>                     ...  0.000
        P|d>                     ...  0.000
        P|f>                     ...  0.000
        P|g>                     ...  0.000
        Building the Coulomb matrix: 
        J|ss>                          ... done (  0.0 sec) ndone=   753060 nskipped1=    19943 nskipped2=    25624
        J|ps>                          ... done (  0.0 sec) ndone=   593297 nskipped1=     8411 nskipped2=    12288
        J|pp>                          ... done (  0.0 sec) ndone=   127821 nskipped1=      351 nskipped2=      889
        Coulomb matrix built in   0.1 sec

        Total time for Split-RI-J                ...    0.117 sec
          (0) Prelude                            ...    0.000 sec
          (1) Hermite density                    ...    0.000 sec
          (2) Aux basis density                  ...    0.000 sec (inner=  0.0)
          (3) Linear equation solution           ...    0.000 sec
          (4) J-Matrix construction              ...    0.053 sec (inner=  0.1)
        ---------------------------------------------------------

                         ----------------------------
                         !        ITERATION     1   !
                         ----------------------------
   Total Energy        :    -378.042428078735 Eh
   Energy Change       :      -0.061252174259 Eh
   MAX-DP              :       0.127628933802
   RMS-DP              :       0.005071864342
   Actual Damping      :       0.7000
   Actual Level Shift  :       0.2500 Eh
   Int. Num. El.       :    70.00005757 (UP=   35.00002878 DN=   35.00002878)
   Exchange            :   -44.22649015
   Correlation         :    -2.74873887

==>> SHARK/AuxDens: NDens=1 Thresh =     1.000000e-10 TCut=    1.000000e-11 Lmax=1 LmaxAux=4
    -> Making Hermite density - ok     0.001 sec
    -> Making Aux-basis density - (lmax=1)
    -> L=0 0:    0.022 sec done=     69130 ( 84.5%) skipped=     12636 
    -> L=1 0:    0.028 sec done=     53306 ( 91.3%) skipped=      5094 
    -> L=1 1:    0.010 sec done=     10687 ( 97.2%) skipped=       313 
    -> Aux basis density formed in    0.1 sec
    -> Solving linear equations - ok (   0.0 sec)
        Auxbasis Hermite Density:
        P|s>                     ...  0.000
        P|p>                     ...  0.000
        P|d>                     ...  0.000
        P|f>                     ...  0.000
        P|g>                     ...  0.000
        Building the Coulomb matrix: 
        J|ss>                          ... done (  0.0 sec) ndone=   751591 nskipped1=    20623 nskipped2=    25379
        J|ps>                          ... done (  0.0 sec) ndone=   593006 nskipped1=     8637 nskipped2=    12210
        J|pp>                          ... done (  0.0 sec) ndone=   127797 nskipped1=      361 nskipped2=      883
        Coulomb matrix built in   0.1 sec

        Total time for Split-RI-J                ...    0.138 sec
          (0) Prelude                            ...    0.000 sec
          (1) Hermite density                    ...    0.000 sec
          (2) Aux basis density                  ...    0.000 sec (inner=  0.0)
          (3) Linear equation solution           ...    0.000 sec
          (4) J-Matrix construction              ...    0.074 sec (inner=  0.1)
        ---------------------------------------------------------
                               ***Turning on DIIS***

                         ----------------------------
                         !        ITERATION     2   !
                         ----------------------------
   Total Energy        :    -378.071048813581 Eh
   Energy Change       :      -0.028620734846 Eh
   MAX-DP              :       0.201400211487
   RMS-DP              :       0.009053322635
   Actual Damping      :       0.0000
   Actual Level Shift  :       0.2500 Eh
   Int. Num. El.       :    70.00005834 (UP=   35.00002917 DN=   35.00002917)
   Exchange            :   -44.17620730
   Correlation         :    -2.74521673
   DIIS-Error          :       0.045389381350

==>> SHARK/AuxDens: NDens=1 Thresh =     1.000000e-10 TCut=    1.000000e-11 Lmax=1 LmaxAux=4
    -> Making Hermite density - ok     0.001 sec
    -> Making Aux-basis density - (lmax=1)
    -> L=0 0:    0.022 sec done=     70825 ( 86.6%) skipped=     10941 
    -> L=1 0:    0.028 sec done=     54090 ( 92.6%) skipped=      4310 
    -> L=1 1:    0.010 sec done=     10800 ( 98.2%) skipped=       200 
    -> Aux basis density formed in    0.1 sec
    -> Solving linear equations - ok (   0.0 sec)
        Auxbasis Hermite Density:
        P|s>                     ...  0.000
        P|p>                     ...  0.000
        P|d>                     ...  0.000
        P|f>                     ...  0.000
        P|g>                     ...  0.000
        Building the Coulomb matrix: 
        J|ss>                          ... done (  0.0 sec) ndone=   757685 nskipped1=    16908 nskipped2=    26381
        J|ps>                          ... done (  0.0 sec) ndone=   594881 nskipped1=     7342 nskipped2=    12500
        J|pp>                          ... done (  0.0 sec) ndone=   127896 nskipped1=      297 nskipped2=      895
        Coulomb matrix built in   0.1 sec

        Total time for Split-RI-J                ...    0.117 sec
          (0) Prelude                            ...    0.000 sec
          (1) Hermite density                    ...    0.000 sec
          (2) Aux basis density                  ...    0.000 sec (inner=  0.0)
          (3) Linear equation solution           ...    0.000 sec
          (4) J-Matrix construction              ...    0.053 sec (inner=  0.1)
        ---------------------------------------------------------

                         ----------------------------
                         !        ITERATION     3   !
                         ----------------------------
   Total Energy        :    -378.113201322525 Eh
   Energy Change       :      -0.042152508944 Eh
   MAX-DP              :       0.082891843764
   RMS-DP              :       0.003518019911
   Actual Damping      :       0.0000
   Actual Level Shift  :       0.2500 Eh
   Int. Num. El.       :    70.00005974 (UP=   35.00002987 DN=   35.00002987)
   Exchange            :   -44.09532977
   Correlation         :    -2.73839604
   DIIS-Error          :       0.070882887547
   DIIS coefficients:
      0.50101   0.49899

==>> SHARK/AuxDens: NDens=1 Thresh =     1.000000e-10 TCut=    1.000000e-11 Lmax=1 LmaxAux=4
    -> Making Hermite density - ok     0.001 sec
    -> Making Aux-basis density - (lmax=1)
    -> L=0 0:    0.022 sec done=     68461 ( 83.7%) skipped=     13305 
    -> L=1 0:    0.027 sec done=     52235 ( 89.4%) skipped=      6165 
    -> L=1 1:    0.011 sec done=     10808 ( 98.3%) skipped=       192 
    -> Aux basis density formed in    0.1 sec
    -> Solving linear equations - ok (   0.0 sec)
        Auxbasis Hermite Density:
        P|s>                     ...  0.000
        P|p>                     ...  0.000
        P|d>                     ...  0.000
        P|f>                     ...  0.000
        P|g>                     ...  0.000
        Building the Coulomb matrix: 
        J|ss>                          ... done (  0.0 sec) ndone=   747286 nskipped1=    24844 nskipped2=    25497
        J|ps>                          ... done (  0.0 sec) ndone=   591381 nskipped1=     9987 nskipped2=    12293
        J|pp>                          ... done (  0.0 sec) ndone=   127687 nskipped1=      452 nskipped2=      885
        Coulomb matrix built in   0.1 sec

        Total time for Split-RI-J                ...    0.116 sec
          (0) Prelude                            ...    0.000 sec
          (1) Hermite density                    ...    0.000 sec
          (2) Aux basis density                  ...    0.000 sec (inner=  0.0)
          (3) Linear equation solution           ...    0.000 sec
          (4) J-Matrix construction              ...    0.053 sec (inner=  0.1)
        ---------------------------------------------------------

                         ----------------------------
                         !        ITERATION     4   !
                         ----------------------------
   Total Energy        :    -378.122591465572 Eh
   Energy Change       :      -0.009390143047 Eh
   MAX-DP              :       0.017970111887
   RMS-DP              :       0.000924834802
   Actual Damping      :       0.0000
   Actual Level Shift  :       0.2500 Eh
   Int. Num. El.       :    70.00005937 (UP=   35.00002969 DN=   35.00002969)
   Exchange            :   -44.12325418
   Correlation         :    -2.74006415
   DIIS-Error          :       0.008120865941
   DIIS coefficients:
      0.18567   0.09123   0.72310

==>> SHARK/AuxDens: NDens=1 Thresh =     1.000000e-10 TCut=    1.000000e-11 Lmax=1 LmaxAux=4
    -> Making Hermite density - ok     0.001 sec
    -> Making Aux-basis density - (lmax=1)
    -> L=0 0:    0.021 sec done=     66777 ( 81.7%) skipped=     14989 
    -> L=1 0:    0.028 sec done=     52425 ( 89.8%) skipped=      5975 
    -> L=1 1:    0.011 sec done=     10650 ( 96.8%) skipped=       350 
    -> Aux basis density formed in    0.1 sec
    -> Solving linear equations - ok (   0.0 sec)
        Auxbasis Hermite Density:
        P|s>                     ...  0.000
        P|p>                     ...  0.000
        P|d>                     ...  0.000
        P|f>                     ...  0.000
        P|g>                     ...  0.000
        Building the Coulomb matrix: 
        J|ss>                          ... done (  0.0 sec) ndone=   740678 nskipped1=    29151 nskipped2=    24652
        J|ps>                          ... done (  0.0 sec) ndone=   588987 nskipped1=    11652 nskipped2=    12099
        J|pp>                          ... done (  0.0 sec) ndone=   127586 nskipped1=      515 nskipped2=      870
        Coulomb matrix built in   0.1 sec

        Total time for Split-RI-J                ...    0.117 sec
          (0) Prelude                            ...    0.000 sec
          (1) Hermite density                    ...    0.000 sec
          (2) Aux basis density                  ...    0.000 sec (inner=  0.0)
          (3) Linear equation solution           ...    0.000 sec
          (4) J-Matrix construction              ...    0.053 sec (inner=  0.1)
        ---------------------------------------------------------
                      *** Initiating the SOSCF procedure ***
                           *** Shutting down DIIS ***
                      *** Re-Reading the Fockian *** 
                      *** Removing any level shift *** 

                         ----------------------------
                         !        ITERATION     5   !
                         ----------------------------
   Total Energy        :    -378.123246218722 Eh
   Energy Change       :      -0.000654753150 Eh
   MAX-DP              :       0.002998480329
   RMS-DP              :       0.000224074689
   Orbital gradient    :       0.001021047449
   Orbital Rotation    :       0.001021047449
   Actual Damping      :       0.0000
   Int. Num. El.       :    70.00005931 (UP=   35.00002965 DN=   35.00002965)
   Exchange            :   -44.12960759
   Correlation         :    -2.74073390

               *** Restarting incremental Fock matrix formation ***
==>> SHARK/AuxDens: NDens=1 Thresh =     1.000000e-10 TCut=    1.000000e-11 Lmax=1 LmaxAux=4
    -> Making Hermite density - ok     0.001 sec
    -> Making Aux-basis density - (lmax=1)
    -> L=0 0:    0.023 sec done=     74320 ( 90.9%) skipped=      7446 
    -> L=1 0:    0.028 sec done=     55621 ( 95.2%) skipped=      2779 
    -> L=1 1:    0.011 sec done=     11000 (100.0%) skipped=         0 
    -> Aux basis density formed in    0.1 sec
    -> Solving linear equations - ok (   0.0 sec)
        Auxbasis Hermite Density:
        P|s>                     ... -0.000
        P|p>                     ... -0.000
        P|d>                     ... -0.000
        P|f>                     ... -0.000
        P|g>                     ... -0.000
        Building the Coulomb matrix: 
        J|ss>                          ... done (  0.0 sec) ndone=   769288 nskipped1=     9223 nskipped2=    29857
        J|ps>                          ... done (  0.0 sec) ndone=   600250 nskipped1=     3404 nskipped2=    14488
        J|pp>                          ... done (  0.0 sec) ndone=   128206 nskipped1=       87 nskipped2=      970
        Coulomb matrix built in   0.1 sec

        Total time for Split-RI-J                ...    0.120 sec
          (0) Prelude                            ...    0.000 sec
          (1) Hermite density                    ...    0.000 sec
          (2) Aux basis density                  ...    0.000 sec (inner=  0.0)
          (3) Linear equation solution           ...    0.000 sec
          (4) J-Matrix construction              ...    0.055 sec (inner=  0.1)
        ---------------------------------------------------------

                         ----------------------------
                         !        ITERATION     6   !
                         ----------------------------
   Total Energy        :    -378.123354678055 Eh
   Energy Change       :      -0.000108459333 Eh
   MAX-DP              :       0.003526531395
   RMS-DP              :       0.000177899879
   Orbital gradient    :       0.000569577773
   Orbital Rotation    :       0.002112355235
   Actual Damping      :       0.0000
   Int. Num. El.       :    70.00005928 (UP=   35.00002964 DN=   35.00002964)
   Exchange            :   -44.13107178
   Correlation         :    -2.74088436

==>> SHARK/AuxDens: NDens=1 Thresh =     1.000000e-10 TCut=    1.000000e-11 Lmax=1 LmaxAux=4
    -> Making Hermite density - ok     0.001 sec
    -> Making Aux-basis density - (lmax=1)
    -> L=0 0:    0.020 sec done=     61583 ( 75.3%) skipped=     20183 
    -> L=1 0:    0.027 sec done=     50369 ( 86.2%) skipped=      8031 
    -> L=1 1:    0.010 sec done=     10475 ( 95.2%) skipped=       525 
    -> Aux basis density formed in    0.1 sec
    -> Solving linear equations - ok (   0.0 sec)
        Auxbasis Hermite Density:
        P|s>                     ...  0.000
        P|p>                     ...  0.000
        P|d>                     ...  0.000
        P|f>                     ...  0.000
        P|g>                     ...  0.000
        Building the Coulomb matrix: 
        J|ss>                          ... done (  0.0 sec) ndone=   709313 nskipped1=    50355 nskipped2=    20191
        J|ps>                          ... done (  0.0 sec) ndone=   576065 nskipped1=    20026 nskipped2=    10689
        J|pp>                          ... done (  0.0 sec) ndone=   126827 nskipped1=     1043 nskipped2=      746
        Coulomb matrix built in   0.1 sec

        Total time for Split-RI-J                ...    0.117 sec
          (0) Prelude                            ...    0.000 sec
          (1) Hermite density                    ...    0.000 sec
          (2) Aux basis density                  ...    0.000 sec (inner=  0.0)
          (3) Linear equation solution           ...    0.000 sec
          (4) J-Matrix construction              ...    0.056 sec (inner=  0.1)
        ---------------------------------------------------------

                         ----------------------------
                         !        ITERATION     7   !
                         ----------------------------
   Total Energy        :    -378.123355373707 Eh
   Energy Change       :      -0.000000695652 Eh
   MAX-DP              :       0.001785109846
   RMS-DP              :       0.000083315564
   Orbital gradient    :       0.000472027282
   Orbital Rotation    :       0.000862444291
   Actual Damping      :       0.0000
   Int. Num. El.       :    70.00005928 (UP=   35.00002964 DN=   35.00002964)
   Exchange            :   -44.13164476
   Correlation         :    -2.74093075

==>> SHARK/AuxDens: NDens=1 Thresh =     1.000000e-10 TCut=    1.000000e-11 Lmax=1 LmaxAux=4
    -> Making Hermite density - ok     0.001 sec
    -> Making Aux-basis density - (lmax=1)
    -> L=0 0:    0.020 sec done=     59224 ( 72.4%) skipped=     22542 
    -> L=1 0:    0.027 sec done=     49407 ( 84.6%) skipped=      8993 
    -> L=1 1:    0.010 sec done=     10408 ( 94.6%) skipped=       592 
    -> Aux basis density formed in    0.1 sec
    -> Solving linear equations - ok (   0.0 sec)
        Auxbasis Hermite Density:
        P|s>                     ... -0.000
        P|p>                     ... -0.000
        P|d>                     ... -0.000
        P|f>                     ... -0.000
        P|g>                     ... -0.000
        Building the Coulomb matrix: 
        J|ss>                          ... done (  0.0 sec) ndone=   698984 nskipped1=    57252 nskipped2=    19332
        J|ps>                          ... done (  0.0 sec) ndone=   571075 nskipped1=    23014 nskipped2=    10383
        J|pp>                          ... done (  0.0 sec) ndone=   126515 nskipped1=     1289 nskipped2=      666
        Coulomb matrix built in   0.1 sec

        Total time for Split-RI-J                ...    0.111 sec
          (0) Prelude                            ...    0.000 sec
          (1) Hermite density                    ...    0.000 sec
          (2) Aux basis density                  ...    0.000 sec (inner=  0.0)
          (3) Linear equation solution           ...    0.000 sec
          (4) J-Matrix construction              ...    0.051 sec (inner=  0.1)
        ---------------------------------------------------------

                         ----------------------------
                         !        ITERATION     8   !
                         ----------------------------
   Total Energy        :    -378.123360759114 Eh
   Energy Change       :      -0.000005385407 Eh
   MAX-DP              :       0.000815823187
   RMS-DP              :       0.000034571813
   Orbital gradient    :       0.000096783714
   Orbital Rotation    :       0.000346013095
   Actual Damping      :       0.0000
   Int. Num. El.       :    70.00005928 (UP=   35.00002964 DN=   35.00002964)
   Exchange            :   -44.13155357
   Correlation         :    -2.74092506

==>> SHARK/AuxDens: NDens=1 Thresh =     1.000000e-10 TCut=    1.000000e-11 Lmax=1 LmaxAux=4
    -> Making Hermite density - ok     0.001 sec
    -> Making Aux-basis density - (lmax=1)
    -> L=0 0:    0.020 sec done=     58170 ( 71.1%) skipped=     23596 
    -> L=1 0:    0.027 sec done=     48118 ( 82.4%) skipped=     10282 
    -> L=1 1:    0.010 sec done=     10404 ( 94.6%) skipped=       596 
    -> Aux basis density formed in    0.1 sec
    -> Solving linear equations - ok (   0.0 sec)
        Auxbasis Hermite Density:
        P|s>                     ... -0.000
        P|p>                     ... -0.000
        P|d>                     ... -0.000
        P|f>                     ... -0.000
        P|g>                     ... -0.000
        Building the Coulomb matrix: 
        J|ss>                          ... done (  0.0 sec) ndone=   687053 nskipped1=    66430 nskipped2=    18839
        J|ps>                          ... done (  0.0 sec) ndone=   565300 nskipped1=    27689 nskipped2=    10337
        J|pp>                          ... done (  0.0 sec) ndone=   125964 nskipped1=     1757 nskipped2=      614
        Coulomb matrix built in   0.1 sec

        Total time for Split-RI-J                ...    0.112 sec
          (0) Prelude                            ...    0.000 sec
          (1) Hermite density                    ...    0.000 sec
          (2) Aux basis density                  ...    0.000 sec (inner=  0.0)
          (3) Linear equation solution           ...    0.000 sec
          (4) J-Matrix construction              ...    0.051 sec (inner=  0.1)
        ---------------------------------------------------------
                 **** Energy Check signals convergence ****
              ***Rediagonalizing the Fockian in SOSCF/NRSCF***

               *****************************************************
               *                     SUCCESS                       *
               *           SCF CONVERGED AFTER   9 CYCLES          *
               *****************************************************

Old exchange energy                            =    -11.140260941 Eh
New exchange energy                            =    -11.140283431 Eh
Exchange energy change after final integration =     -0.000022491 Eh
Total energy after final integration           =   -378.123383246 Eh
Final COS-X integration done in                =     2.875 sec

----------------
TOTAL SCF ENERGY
----------------

Total Energy       :         -378.12338325 Eh          -10289.26035 eV

Components:
Nuclear Repulsion  :          465.08901824 Eh           12655.71559 eV
Electronic Energy  :         -843.21240149 Eh          -22944.97594 eV
One Electron Energy:        -1427.95506133 Eh          -38856.63265 eV
Two Electron Energy:          584.74265985 Eh           15911.65671 eV
Max COSX asymmetry :            0.00000176 Eh               0.00005 eV

Virial components:
Potential Energy   :         -756.55598806 Eh          -20586.93505 eV
Kinetic Energy     :          378.43260482 Eh           10297.67470 eV
Virial Ratio       :            1.99918289


DFT components:
N(Alpha)           :       35.000029640470 electrons
N(Beta)            :       35.000029640470 electrons
N(Total)           :       70.000059280939 electrons
E(X)               :      -44.131295596941 Eh       
E(C)               :       -2.740907382475 Eh       
E(XC)              :      -46.872202979416 Eh       
DFET-embed. en.    :        0.000000000000 Eh       

---------------
SCF CONVERGENCE
---------------

  Last Energy change         ...    3.8623e-09  Tolerance :   1.0000e-06
  Last MAX-Density change    ...    2.6645e-15  Tolerance :   1.0000e-05
  Last RMS-Density change    ...    1.3614e-16  Tolerance :   1.0000e-06
  Last Orbital Gradient      ...    1.0146e-04  Tolerance :   5.0000e-05
  Last Orbital Rotation      ...    1.8011e-04  Tolerance :   5.0000e-05

             **** THE GBW FILE WAS UPDATED (dvb_scan_unrelaxed.gbw) ****
             **** DENSITY dvb_scan_unrelaxed.scfp WAS UPDATED ****
             **** ENERGY FILE WAS UPDATED (dvb_scan_unrelaxed.en.tmp) ****
             **** THE GBW FILE WAS UPDATED (dvb_scan_unrelaxed.gbw) ****
             **** DENSITY dvb_scan_unrelaxed.scfp WAS UPDATED ****
----------------
ORBITAL ENERGIES
----------------

  NO   OCC          E(Eh)            E(eV) 
   0   2.0000     -10.687437      -290.8200 
   1   2.0000     -10.035863      -273.0897 
   2   2.0000     -10.028274      -272.8832 
   3   2.0000     -10.023510      -272.7536 
   4   2.0000     -10.021752      -272.7057 
   5   2.0000     -10.018830      -272.6262 
   6   2.0000     -10.017362      -272.5863 
   7   2.0000     -10.015214      -272.5278 
   8   2.0000     -10.001165      -272.1455 
   9   2.0000      -9.995144      -271.9817 
  10   2.0000      -0.959745       -26.1160 
  11   2.0000      -0.835768       -22.7424 
  12   2.0000      -0.759942       -20.6791 
  13   2.0000      -0.719904       -19.5896 
  14   2.0000      -0.696134       -18.9428 
  15   2.0000      -0.599585       -16.3155 
  16   2.0000      -0.581864       -15.8333 
  17   2.0000      -0.535841       -14.5810 
  18   2.0000      -0.525648       -14.3036 
  19   2.0000      -0.493430       -13.4269 
  20   2.0000      -0.476720       -12.9722 
  21   2.0000      -0.443477       -12.0676 
  22   2.0000      -0.422066       -11.4850 
  23   2.0000      -0.412301       -11.2193 
  24   2.0000      -0.393216       -10.7000 
  25   2.0000      -0.379372       -10.3232 
  26   2.0000      -0.351522        -9.5654 
  27   2.0000      -0.344051        -9.3621 
  28   2.0000      -0.313980        -8.5438 
  29   2.0000      -0.304291        -8.2802 
  30   2.0000      -0.299467        -8.1489 
  31   2.0000      -0.249495        -6.7891 
  32   2.0000      -0.210761        -5.7351 
  33   2.0000      -0.181801        -4.9471 
  34   2.0000      -0.100307        -2.7295 
  35   0.0000       0.020371         0.5543 
  36   0.0000       0.079112         2.1528 
  37   0.0000       0.096897         2.6367 
  38   0.0000       0.179121         4.8741 
  39   0.0000       0.279508         7.6058 
  40   0.0000       0.294398         8.0110 
  41   0.0000       0.323696         8.8082 
  42   0.0000       0.340065         9.2536 
  43   0.0000       0.357713         9.7339 
  44   0.0000       0.383422        10.4334 
  45   0.0000       0.414502        11.2792 
  46   0.0000       0.429540        11.6884 
  47   0.0000       0.438233        11.9249 
  48   0.0000       0.461409        12.5556 
  49   0.0000       0.502736        13.6802 
  50   0.0000       0.530299        14.4302 
  51   0.0000       0.568038        15.4571 
  52   0.0000       0.582047        15.8383 
  53   0.0000       0.619685        16.8625 
  54   0.0000       0.631338        17.1796 
  55   0.0000       0.659242        17.9389 
  56   0.0000       0.704313        19.1653 
  57   0.0000       0.800943        21.7948 
  58   0.0000       0.829904        22.5828 
  59   0.0000       3.432018        93.3900 
------------------
MOLECULAR ORBITALS
------------------
                      0         1         2         3         4         5   
                 -10.68744 -10.03586 -10.02827 -10.02351 -10.02175 -10.01883
                   2.00000   2.00000   2.00000   2.00000   2.00000   2.00000
                  --------  --------  --------  --------  --------  --------
  0C   1s         0.000001  0.989828  0.004291 -0.000272  0.000727  0.016377
  0C   2s         0.000012  0.045914  0.000007 -0.001164 -0.001224 -0.009125
  0C   1pz       -0.000000  0.000000 -0.000000  0.000000 -0.000000 -0.000000
  0C   1px        0.000011  0.000427 -0.000112  0.000244 -0.000544  0.003266
  0C   1py        0.000027  0.001395 -0.000239 -0.000479 -0.000109 -0.005669
  1C   1s         0.000006 -0.017311 -0.000797  0.005289  0.072737 -0.022892
  1C   2s        -0.000301 -0.010508  0.000744  0.000203  0.012916 -0.000909
  1C   1pz        0.000000 -0.000000  0.000000  0.000000 -0.000000  0.000000
  1C   1px       -0.000108  0.006387  0.000217 -0.000222  0.002964 -0.000021
  1C   1py       -0.000176 -0.000201  0.000353  0.000130  0.005674 -0.000108
  2C   1s        -0.000050 -0.000682 -0.041020  0.020942 -0.986595  0.010027
  2C   2s        -0.000398  0.000605 -0.012110  0.001210 -0.045346  0.000529
  2C   1pz        0.000000 -0.000000  0.000000  0.000000 -0.000000  0.000000
  2C   1px       -0.000338 -0.000196  0.003460 -0.000144  0.001978  0.000153
  2C   1py       -0.001284 -0.000152 -0.005564  0.000349  0.000296 -0.000154
  3C   1s        -0.000082 -0.004371  0.986874 -0.069402 -0.043446  0.004704
  3C   2s        -0.000043 -0.000346  0.046589  0.006246  0.008340 -0.000170
  3C   1pz       -0.000000 -0.000000  0.000000  0.000000  0.000000 -0.000000
  3C   1px       -0.000113  0.000114 -0.000598 -0.006372  0.003047  0.000286
  3C   1py        0.000149  0.000236 -0.001545  0.000047 -0.005599  0.000031
  4C   1s        -0.000007 -0.001254 -0.069033 -0.985511 -0.016771  0.069695
  4C   2s        -0.000073  0.000551 -0.012820 -0.044458 -0.000862 -0.006569
  4C   1pz       -0.000000  0.000000  0.000000 -0.000000 -0.000000  0.000000
  4C   1px       -0.000135 -0.000091 -0.006409 -0.000200  0.000175  0.003065
  4C   1py       -0.000177 -0.000198  0.000281  0.001919  0.000113  0.005485
  5H   1s         0.000040  0.000334 -0.000112  0.000035 -0.000845  0.000105
  6H   1s        -0.001674 -0.000097  0.000604 -0.000114  0.009044 -0.000172
  7H   1s        -0.000092 -0.000106  0.000797  0.008938  0.000251 -0.000460
  8C   1s         0.000209 -0.000028 -0.014134  0.001556  0.001633 -0.000481
  8C   2s        -0.019299 -0.000020 -0.008628  0.000351  0.000118 -0.000121
  8C   1pz       -0.000000  0.000000 -0.000000 -0.000000  0.000000 -0.000000
  8C   1px       -0.010929  0.000009  0.002709 -0.000175 -0.000065  0.000099
  8C   1py        0.004197  0.000017  0.005289 -0.000272 -0.000076  0.000047
  9C   1s         0.972077 -0.000008  0.000349 -0.000047 -0.000362  0.000010
  9C   2s        -0.107505 -0.000037  0.002341 -0.000020 -0.001135  0.000008
  9C   1pz       -0.000000  0.000000  0.000000 -0.000000 -0.000000  0.000000
  9C   1px        0.025490  0.000008 -0.000737 -0.000032  0.000362  0.000004
  9C   1py        0.023330  0.000005 -0.000716 -0.000023  0.000083 -0.000001
 10H   1s        -0.002313  0.000012 -0.000288  0.000030 -0.000300  0.000006
 11H   1s         0.166608  0.000038 -0.002068  0.000080  0.001406 -0.000028
 12H   1s        -0.003050  0.000001  0.000005  0.000014  0.000044 -0.000001
 13C   1s        -0.000000 -0.022201 -0.000356  0.000917  0.001122 -0.006218
 13C   2s         0.000005 -0.009070 -0.000101  0.000155  0.000157 -0.000080
 13C   1pz       -0.000000 -0.000000 -0.000000 -0.000000  0.000000 -0.000000
 13C   1px       -0.000000 -0.003001 -0.000033  0.000002  0.000080  0.000026
 13C   1py        0.000003 -0.005072 -0.000052  0.000103  0.000036 -0.000041
 14H   1s        -0.000001  0.000342  0.000011  0.000009 -0.000009 -0.000023
 15C   1s        -0.000000 -0.000035  0.000009 -0.000025  0.000035 -0.000386
 15C   2s         0.000002  0.000525  0.000004 -0.000003 -0.000028 -0.000055
 15C   1pz        0.000000 -0.000000  0.000000 -0.000000  0.000000 -0.000000
 15C   1px        0.000000  0.000118  0.000001 -0.000006  0.000006 -0.000024
 15C   1py       -0.000002  0.000293  0.000008 -0.000005  0.000006 -0.000057
 16H   1s        -0.000007 -0.000196  0.000010 -0.000003  0.000066 -0.000014
 17H   1s        -0.000001 -0.000045  0.000001 -0.000002  0.000006 -0.000008
 18C   1s         0.000001 -0.015547  0.000537  0.068408  0.013024  0.987680
 18C   2s        -0.000063 -0.010933  0.001076  0.012743  0.000903  0.044252
 18C   1pz        0.000000 -0.000000  0.000000  0.000000  0.000000 -0.000000
 18C   1px       -0.000014 -0.003421  0.000350  0.003480  0.000324  0.001708
 18C   1py       -0.000035  0.005566  0.000481  0.005350  0.000074 -0.000603
 19H   1s         0.000007  0.000323 -0.000112 -0.000791 -0.000057 -0.008947
                      6         7         8         9        10        11   
                 -10.01736 -10.01521 -10.00116  -9.99514  -0.95975  -0.83577
                   2.00000   2.00000   2.00000   2.00000   2.00000   2.00000
                  --------  --------  --------  --------  --------  --------
  0C   1s        -0.018814  0.024020 -0.000390  0.000120  0.002434 -0.121503
  0C   2s         0.008910 -0.007153 -0.000244  0.000005 -0.005663  0.300438
  0C   1pz        0.000000  0.000000  0.000000  0.000000 -0.000000  0.000000
  0C   1px        0.006290  0.002735  0.000012 -0.000012 -0.001274  0.021588
  0C   1py        0.000293  0.005203  0.000042 -0.000032 -0.001600  0.044933
  1C   1s        -0.987369  0.011045 -0.001834  0.000543  0.004187 -0.103305
  1C   2s        -0.043759  0.000583  0.000078 -0.000115 -0.009268  0.255342
  1C   1pz       -0.000000 -0.000000  0.000000 -0.000000  0.000000 -0.000000
  1C   1px        0.000969  0.000073 -0.000061  0.000019 -0.000842 -0.041605
  1C   1py       -0.001040 -0.000066 -0.000220 -0.000124 -0.003981  0.047930
  2C   1s        -0.074111  0.002025 -0.000197  0.001106  0.015193 -0.097226
  2C   2s         0.006310 -0.000095  0.000069  0.000396 -0.035777  0.239341
  2C   1pz       -0.000000  0.000000 -0.000000  0.000000  0.000000  0.000000
  2C   1px       -0.003227  0.000117 -0.000033 -0.000039  0.004853 -0.061955
  2C   1py       -0.005388  0.000081 -0.000048  0.000019 -0.010517  0.002349
  3C   1s        -0.004434  0.000461 -0.000006  0.015793  0.034037 -0.095685
  3C   2s         0.000223  0.000000 -0.000000 -0.007684 -0.073919  0.235777
  3C   1pz        0.000000 -0.000000 -0.000000 -0.000000 -0.000000  0.000000
  3C   1px        0.000136  0.000020  0.000001 -0.003962 -0.016959 -0.025079
  3C   1py       -0.000318  0.000041  0.000000 -0.004852 -0.021589 -0.056687
  4C   1s        -0.008115  0.001432 -0.000037  0.000664  0.008303 -0.094123
  4C   2s         0.000015 -0.000058  0.000015  0.000007 -0.019535  0.233276
  4C   1pz        0.000000  0.000000  0.000000  0.000000 -0.000000  0.000000
  4C   1px        0.000085 -0.000012 -0.000006 -0.000267 -0.009766  0.028139
  4C   1py       -0.000354  0.000106 -0.000011  0.000172 -0.000136 -0.056418
  5H   1s         0.009036 -0.000301 -0.000329 -0.000019 -0.001307  0.045284
  6H   1s         0.000498 -0.000030  0.000006 -0.000270 -0.000820  0.041927
  7H   1s         0.000158 -0.000030  0.000000 -0.000361 -0.003808  0.037290
  8C   1s         0.000670 -0.000059  0.000012  0.990964  0.122850 -0.003206
  8C   2s         0.000140 -0.000018  0.000001  0.040537 -0.185783  0.025440
  8C   1pz        0.000000  0.000000  0.000000  0.000000 -0.000000 -0.000000
  8C   1px       -0.000002  0.000006  0.000000  0.006909 -0.136844 -0.035064
  8C   1py       -0.000099  0.000012 -0.000000 -0.005860  0.043051 -0.029112
  9C   1s        -0.000035  0.000001 -0.000000  0.001647  0.279200  0.038307
  9C   2s        -0.000068  0.000001 -0.000000 -0.012215  0.000923 -0.009409
  9C   1pz       -0.000000 -0.000000 -0.000000 -0.000000 -0.000000 -0.000000
  9C   1px        0.000008  0.000000  0.000000  0.007646  0.232444  0.030686
  9C   1py       -0.000027  0.000000 -0.000000  0.001612  0.115664  0.013633
 10H   1s         0.000017  0.000000 -0.000000  0.000360 -0.047590 -0.007511
 11H   1s         0.000074 -0.000001  0.000000  0.000679 -0.678613 -0.089351
 12H   1s         0.000016 -0.000000  0.000000 -0.000161 -0.062231 -0.010514
 13C   1s         0.011694  0.990194 -0.013904  0.000041  0.000437 -0.050629
 13C   2s         0.000343  0.043947  0.009767 -0.000010 -0.001097  0.128367
 13C   1pz       -0.000000 -0.000000 -0.000000 -0.000000  0.000000  0.000000
 13C   1px        0.000001  0.000996  0.002881 -0.000005 -0.000308  0.024957
 13C   1py        0.000019 -0.001514 -0.005819 -0.000008 -0.000452  0.026949
 14H   1s        -0.000006 -0.009052 -0.000079 -0.000001 -0.000155  0.024199
 15C   1s         0.001650 -0.012694 -0.990586  0.000010  0.000140 -0.024322
 15C   2s         0.000111 -0.010904 -0.043932  0.000000 -0.000339  0.060898
 15C   1pz        0.000000  0.000000 -0.000000  0.000000 -0.000000  0.000000
 15C   1px        0.000194  0.002875  0.000993  0.000000  0.000016 -0.005295
 15C   1py        0.000073 -0.005862 -0.001592 -0.000001 -0.000171  0.023445
 16H   1s        -0.000366  0.000296  0.008965 -0.000001 -0.000077  0.014487
 17H   1s         0.000048  0.000321  0.009308 -0.000000 -0.000038  0.010078
 18C   1s        -0.021276  0.006049 -0.000519  0.000393  0.002881 -0.105733
 18C   2s        -0.001091  0.000283  0.000068 -0.000052 -0.006902  0.259639
 18C   1pz        0.000000 -0.000000  0.000000  0.000000 -0.000000  0.000000
 18C   1px       -0.000033 -0.000140 -0.000005 -0.000061 -0.002526  0.065903
 18C   1py        0.000018  0.000007 -0.000089 -0.000029 -0.001361 -0.015741
 19H   1s         0.000292 -0.000109  0.000022 -0.000011 -0.000768  0.044779
                     12        13        14        15        16        17   
                  -0.75994  -0.71990  -0.69613  -0.59958  -0.58186  -0.53584
                   2.00000   2.00000   2.00000   2.00000   2.00000   2.00000
                  --------  --------  --------  --------  --------  --------
  0C   1s        -0.104258 -0.023039 -0.081837  0.079743 -0.051138  0.014981
  0C   2s         0.272670  0.059222  0.217444 -0.228604  0.148379 -0.039573
  0C   1pz       -0.000000  0.000000  0.000000  0.000000 -0.000000 -0.000000
  0C   1px       -0.031599 -0.107984  0.070202  0.150785  0.176417 -0.037265
  0C   1py       -0.058657  0.095457  0.080231  0.038537 -0.115580 -0.147316
  1C   1s        -0.019774  0.106725 -0.102151 -0.081127 -0.070099  0.001075
  1C   2s         0.052916 -0.283517  0.274116  0.228518  0.202870 -0.002431
  1C   1pz       -0.000000  0.000000  0.000000 -0.000000 -0.000000  0.000000
  1C   1px       -0.072262 -0.055151 -0.041154  0.074528 -0.143111  0.050476
  1C   1py       -0.058634 -0.044000  0.017037 -0.001794 -0.129891 -0.002226
  2C   1s         0.079073  0.130491 -0.005507  0.006290  0.116754 -0.017754
  2C   2s        -0.202677 -0.346400  0.013839 -0.018158 -0.337368  0.056219
  2C   1pz       -0.000000 -0.000000  0.000000  0.000000 -0.000000  0.000000
  2C   1px        0.029122  0.018054 -0.007809 -0.020886 -0.087189  0.021557
  2C   1py       -0.064082  0.033521 -0.123671 -0.172101 -0.031932 -0.031384
  3C   1s         0.114167  0.024645  0.107798  0.078927 -0.045917  0.002800
  3C   2s        -0.295093 -0.064726 -0.291406 -0.226888  0.136096 -0.008584
  3C   1pz       -0.000000 -0.000000 -0.000000  0.000000 -0.000000  0.000000
  3C   1px        0.005926 -0.114430  0.024094 -0.143126 -0.137580 -0.114755
  3C   1py        0.036477  0.066886 -0.031074 -0.033884  0.162560 -0.046653
  4C   1s         0.067595 -0.114036  0.070169 -0.091198 -0.049672 -0.057728
  4C   2s        -0.175315  0.302820 -0.191879  0.258041  0.143404  0.175485
  4C   1pz       -0.000000 -0.000000  0.000000 -0.000000 -0.000000  0.000000
  4C   1px       -0.064883 -0.060626 -0.072877 -0.091879  0.127272  0.024801
  4C   1py       -0.004280 -0.064154 -0.040976 -0.028932  0.115956  0.073404
[...]
                 D7  : 360.00000000
         *************************************************************
---------------------------------
CARTESIAN COORDINATES (ANGSTROEM)
---------------------------------
  C      0.000000    0.000000    0.000000
  C      1.391558    0.000000    0.000000
  C      2.091623    1.199912    0.000000
  C      1.405722    2.381427    0.000000
  C      0.014165    2.381427    0.000000
  H      1.937349   -0.949187    0.000000
  H      3.187592    1.193861    0.000000
  H     -0.531626    3.330614    0.000000
  C      2.146185    3.669632    0.000000
  C      3.486295    3.756559    0.000000
  H      4.091847    2.833995    0.000000
  H      3.241279    3.585803    0.000000
  H      3.998992    4.695730    0.000000
  C     -0.740463   -1.288205   -0.000000
  H     -1.835557   -1.204377   -0.000000
  C     -0.141086   -2.489953   -0.000000
  H      0.960888   -2.548878   -0.000000
  H     -0.694583   -3.405672   -0.000000
  C     -0.685901    1.181515    0.000000
  H     -1.781870    1.187566    0.000000

----------------------------
CARTESIAN COORDINATES (A.U.)
----------------------------
  NO LB      ZA    FRAG     MASS         X           Y           Z
   0 C     6.0000    0    12.011    0.000000    0.000000    0.000000
   1 C     6.0000    0    12.011    2.629663    0.000000    0.000000
   2 C     6.0000    0    12.011    3.952595    2.267504    0.000000
   3 C     6.0000    0    12.011    2.656430    4.500245    0.000000
   4 C     6.0000    0    12.011    0.026767    4.500245    0.000000
   5 H     1.0000    0     1.008    3.661058   -1.793704    0.000000
   6 H     1.0000    0     1.008    6.023676    2.256069    0.000000
   7 H     1.0000    0     1.008   -1.004628    6.293949    0.000000
   8 C     6.0000    0    12.011    4.055702    6.934600    0.000000
   9 C     6.0000    0    12.011    6.588142    7.098868    0.000000
  10 H     1.0000    0     1.008    7.732471    5.355474    0.000000
  11 H     1.0000    0     1.008    6.125130    6.776186    0.000000
  12 H     1.0000    0     1.008    7.557000    8.873643    0.000000
  13 C     6.0000    0    12.011   -1.399272   -2.434355   -0.000000
  14 H     1.0000    0     1.008   -3.468700   -2.275942   -0.000000
  15 C     6.0000    0    12.011   -0.266614   -4.705329   -0.000000
  16 H     1.0000    0     1.008    1.815815   -4.816682   -0.000000
  17 H     1.0000    0     1.008   -1.312571   -6.435787   -0.000000
  18 C     6.0000    0    12.011   -1.296165    2.232740    0.000000
  19 H     1.0000    0     1.008   -3.367246    2.244175    0.000000

--------------------------------
INTERNAL COORDINATES (ANGSTROEM)
--------------------------------
 C      0   0   0     0.000000000000     0.00000000     0.00000000
 C      1   0   0     1.391557620000     0.00000000     0.00000000
 C      2   1   0     1.389201120000   120.26061806     0.00000000
 C      3   2   1     1.366176700000   119.60307576     0.00000000
 C      4   3   2     1.391557620000   120.13630618     0.00000000
 H      2   1   5     1.094917540000   119.89927090   180.00000000
 H      3   2   1     1.095985470000   119.94428410   180.00000000
 H      5   4   3     1.094917540000   119.89927090   180.00000000
 C      4   3   2     1.485852830000   119.97332138   180.00000000
 C      9   4   3     1.342925810000   123.60169362   360.00000000
 H     10   9   4     1.103548260000   119.56877435     0.00000000
 H      9   4   3     1.098298010000   115.51294680     0.00000000
 H     10   9   4     1.070000000000   122.34164357   180.00000000
 C      1   2   3     1.485852830000   119.89037245   180.00000000
 H     14   1   2     1.098298010000   115.51294680   180.00000000
 C     14   1   2     1.342925810000   123.60169362     0.00000000
 H     16  14   1     1.103548260000   119.56877435     0.00000000
 H     16  14   1     1.070000000000   122.34164357   180.00000000
 C      5   4   3     1.389201120000   120.26061806     0.00000000
 H     19   5   4     1.095985470000   119.94428410   180.00000000

---------------------------
INTERNAL COORDINATES (A.U.)
---------------------------
 C      0   0   0     0.000000000000     0.00000000     0.00000000
 C      1   0   0     2.629662801371     0.00000000     0.00000000
 C      2   1   0     2.625209661737   120.26061806     0.00000000
 C      3   2   1     2.581699813544   119.60307576     0.00000000
 C      4   3   2     2.629662801371   120.13630618     0.00000000
 H      2   1   5     2.069094289827   119.89927090   180.00000000
 H      3   2   1     2.071112385057   119.94428410   180.00000000
 H      5   4   3     2.069094289827   119.89927090   180.00000000
 C      4   3   2     2.807854924012   119.97332138   180.00000000
 C      9   4   3     2.537761999074   123.60169362   360.00000000
 H     10   9   4     2.085403986965   119.56877435     0.00000000
 H      9   4   3     2.075482452331   115.51294680     0.00000000
 H     10   9   4     2.022006963296   122.34164357   180.00000000
 C      1   2   3     2.807854924012   119.89037245   180.00000000
 H     14   1   2     2.075482452331   115.51294680   180.00000000
 C     14   1   2     2.537761999074   123.60169362     0.00000000
 H     16  14   1     2.085403986965   119.56877435     0.00000000
 H     16  14   1     2.022006963296   122.34164357   180.00000000
 C      5   4   3     2.625209661737   120.26061806     0.00000000
 H     19   5   4     2.071112385057   119.94428410   180.00000000

------------------------------------------------------------------------------
                   ___                                                        
                  /   \      - P O W E R E D   B Y -                         
                 /     \                                                     
                 |  |  |   _    _      __       _____    __    __             
                 |  |  |  | |  | |    /  \     |  _  \  |  |  /  |          
                  \  \/   | |  | |   /    \    | | | |  |  | /  /          
                 / \  \   | |__| |  /  /\  \   | |_| |  |  |/  /          
                |  |  |   |  __  | /  /__\  \  |    /   |      \           
                |  |  |   | |  | | |   __   |  |    \   |  |\   \          
                \     /   | |  | | |  |  |  |  | |\  \  |  | \   \       
                 \___/    |_|  |_| |__|  |__|  |_| \__\ |__|  \__/        
                                                                              
                      - O R C A' S   B I G   F R I E N D -                    
                                      &                                       
                       - I N T E G R A L  F E E D E R -                       
                                                                              
 v1 FN, 2020, v2 2021                                                         
------------------------------------------------------------------------------


Reading SHARK input file dvb_scan_unrelaxed.SHARKINP.tmp ... ok
----------------------
SHARK INTEGRAL PACKAGE
----------------------

Number of atoms                             ...     20
Number of basis functions                   ...     60
Number of shells                            ...     40
Maximum angular momentum                    ...      1
Integral batch strategy                     ... SHARK/LIBINT Hybrid
RI-J (if used) integral strategy            ... SPLIT-RIJ (Revised 2003 algorithm where possible)
Printlevel                                  ...      1
Contraction scheme used                     ... SEGMENTED contraction
Coulomb Range Separation                    ... NOT USED
Exchange Range Separation                   ... NOT USED
Finite Nucleus Model                        ... NOT USED
Auxiliary Coulomb fitting basis             ... AVAILABLE
   # of basis functions in Aux-J            ...    600
   # of shells in Aux-J                     ...    200
   Maximum angular momentum in Aux-J        ...      4
Auxiliary J/K fitting basis                 ... NOT available
Auxiliary Correlation fitting basis         ... NOT available
Auxiliary 'external' fitting basis          ... NOT available
Integral threshold                          ...     1.000000e-10
Primitive cut-off                           ...     1.000000e-11
Primitive pair pre-selection threshold      ...     1.000000e-11

Calculating pre-screening integrals         ... done (  0.0 sec) Dimension = 40
Organizing shell pair data                  ... done (  0.0 sec)
Shell pair information
Total number of shell pairs                 ...       820
Shell pairs after pre-screening             ...       760
Total number of primitive shell pairs       ...      7380
Primitive shell pairs kept                  ...      4874
          la=0 lb=0:    411 shell pairs
          la=1 lb=0:    294 shell pairs
          la=1 lb=1:     55 shell pairs

Calculating one electron integrals          ... done (  0.0 sec)
Calculating RI/J V-Matrix + Cholesky decomp.... done (  0.0 sec)
Calculating Nuclear repulsion               ... done (  0.0 sec) ENN=    465.089018243124 Eh

SHARK setup successfully completed in   0.1 seconds

Maximum memory used throughout the entire GTOINT-calculation: 10.0 MB

Diagonalization of the overlap matrix:
Smallest eigenvalue                        ... 9.768e-03
Time for diagonalization                   ...    0.001 sec
Threshold for overlap eigenvalues          ... 1.000e-08
Number of eigenvalues below threshold      ... 0
Time for construction of square roots      ...    0.000 sec
Total time needed                          ...    0.001 sec

-------------------
DFT GRID GENERATION
-------------------

General Integration Accuracy     IntAcc      ... 4.388
Radial Grid Type                 RadialGrid  ... OptM3 with GC (2021)
Angular Grid (max. ang.)         AngularGrid ... 4 (Lebedev-302)
Angular grid pruning method      GridPruning ... 4 (adaptive)
Weight generation scheme         WeightScheme... Becke
Basis function cutoff            BFCut       ... 1.0000e-10
Integration weight cutoff        WCut        ... 1.0000e-14
Angular grids for H and He will be reduced by one unit
Partially contracted basis set               ... off
Rotationally invariant grid construction     ... off

Total number of grid points                  ...    91936
Total number of batches                      ...     1446
Average number of points per batch           ...       63
Average number of grid points per atom       ...     4597
Time for grid setup =    0.610 sec

--------------------
COSX GRID GENERATION
--------------------

GRIDX 1
-------
General Integration Accuracy     IntAcc      ... 3.816
Radial Grid Type                 RadialGrid  ... OptM3 with GC (2021)
Angular Grid (max. ang.)         AngularGrid ... 1 (Lebedev-50)
Angular grid pruning method      GridPruning ... 4 (adaptive)
Weight generation scheme         WeightScheme... Becke
Basis function cutoff            BFCut       ... 1.0000e-10
Integration weight cutoff        WCut        ... 1.0000e-14
Angular grids for H and He will be reduced by one unit
Partially contracted basis set               ... on
Rotationally invariant grid construction     ... off

Total number of grid points                  ...    11774
Total number of batches                      ...      191
Average number of points per batch           ...       61
Average number of grid points per atom       ...      589
UseSFitting                                  ... on

GRIDX 2
-------
General Integration Accuracy     IntAcc      ... 4.020
Radial Grid Type                 RadialGrid  ... OptM3 with GC (2021)
Angular Grid (max. ang.)         AngularGrid ... 2 (Lebedev-110)
Angular grid pruning method      GridPruning ... 4 (adaptive)
Weight generation scheme         WeightScheme... Becke
Basis function cutoff            BFCut       ... 1.0000e-10
Integration weight cutoff        WCut        ... 1.0000e-14
Angular grids for H and He will be reduced by one unit
Partially contracted basis set               ... on
Rotationally invariant grid construction     ... off

Total number of grid points                  ...    25354
Total number of batches                      ...      407
Average number of points per batch           ...       62
Average number of grid points per atom       ...     1268
UseSFitting                                  ... on

GRIDX 3
-------
General Integration Accuracy     IntAcc      ... 4.338
Radial Grid Type                 RadialGrid  ... OptM3 with GC (2021)
Angular Grid (max. ang.)         AngularGrid ... 3 (Lebedev-194)
Angular grid pruning method      GridPruning ... 4 (adaptive)
Weight generation scheme         WeightScheme... Becke
Basis function cutoff            BFCut       ... 1.0000e-10
Integration weight cutoff        WCut        ... 1.0000e-14
Angular grids for H and He will be reduced by one unit
Partially contracted basis set               ... on
Rotationally invariant grid construction     ... off

Total number of grid points                  ...    55667
Total number of batches                      ...      879
Average number of points per batch           ...       63
Average number of grid points per atom       ...     2783
UseSFitting                                  ... on

Time for X-Grid setup             =    0.555 sec

--------------
SCF ITERATIONS
--------------
ITER       Energy         Delta-E        Max-DP      RMS-DP      [F,P]     Damp
               ***  Starting incremental Fock matrix formation  ***
  0   -377.7391807507   0.000000000000 0.27620781  0.01039428  0.2254043 0.7000
  1   -377.8471920318  -0.108011281064 0.20725515  0.00832790  0.1737175 0.7000
                               ***Turning on DIIS***
  2   -377.9246469615  -0.077454929708 0.16148404  0.00610280  0.1301006 0.7000
  3   -377.9803332091  -0.055686247630 0.43724872  0.01537920  0.0963249 0.0000
  4   -378.1181346702  -0.137801461105 0.03556141  0.00208836  0.0178252 0.0000
  5   -378.1207481867  -0.002613516445 0.02508650  0.00127567  0.0104206 0.0000
  6   -378.1219861805  -0.001237993787 0.01999279  0.00096544  0.0063884 0.0000
  7   -378.1226305113  -0.000644330797 0.01413357  0.00071541  0.0043621 0.0000
  8   -378.1229622082  -0.000331696922 0.00956795  0.00051989  0.0029069 0.0000
  9   -378.1231344910  -0.000172282796 0.00669271  0.00038112  0.0019303 0.0000
                      *** Initiating the SOSCF procedure ***
                           *** Shutting down DIIS ***
                      *** Re-Reading the Fockian *** 
                      *** Removing any level shift *** 
ITER      Energy       Delta-E        Grad      Rot      Max-DP    RMS-DP
 10   -378.12322403  -0.0000895357  0.002441  0.002441  0.004533  0.000276
               *** Restarting incremental Fock matrix formation ***
 11   -378.12331889  -0.0000948632  0.001390  0.011525  0.008175  0.000479
 12   -378.12335627  -0.0000373752  0.000320  0.005074  0.003574  0.000240
 13   -378.12335599   0.0000002774  0.000603  0.001247  0.002415  0.000093
 14   -378.12336077  -0.0000047813  0.000079  0.000560  0.000561  0.000036
                 **** Energy Check signals convergence ****
              ***Rediagonalizing the Fockian in SOSCF/NRSCF***

               *****************************************************
               *                     SUCCESS                       *
               *           SCF CONVERGED AFTER  15 CYCLES          *
               *****************************************************

Old exchange energy                            =    -11.140286814 Eh
New exchange energy                            =    -11.140309315 Eh
Exchange energy change after final integration =     -0.000022501 Eh
Total energy after final integration           =   -378.123383389 Eh
Final COS-X integration done in                =     2.883 sec
Total Energy       :         -378.12338339 Eh          -10289.26036 eV
  Last Energy change         ...   -1.1944e-07  Tolerance :   1.0000e-06
  Last MAX-Density change    ...    3.1086e-15  Tolerance :   1.0000e-05
             **** THE GBW FILE WAS UPDATED (dvb_scan_unrelaxed.gbw) ****
             **** DENSITY dvb_scan_unrelaxed.scfp WAS UPDATED ****
             **** ENERGY FILE WAS UPDATED (dvb_scan_unrelaxed.en.tmp) ****
             **** THE GBW FILE WAS UPDATED (dvb_scan_unrelaxed.gbw) ****
             **** DENSITY dvb_scan_unrelaxed.scfp WAS UPDATED ****
Total SCF time: 0 days 0 hours 0 min 22 sec 

Maximum memory used throughout the entire SCF-calculation: 55.0 MB

-------------------------   --------------------
FINAL SINGLE POINT ENERGY      -378.123383389067
-------------------------   --------------------

Storing actual gbw-file in dvb_scan_unrelaxed.012.gbw ... done

                            ***************************************
                            *     ORCA property calculations      *
                            ***************************************

                                    ---------------------
                                    Active property flags
                                    ---------------------
   (+) Dipole Moment


------------------------------------------------------------------------------
                       ORCA ELECTRIC PROPERTIES CALCULATION
------------------------------------------------------------------------------

Dipole Moment Calculation                       ... on
Quadrupole Moment Calculation                   ... off
Polarizability Calculation                      ... off
GBWName                                         ... dvb_scan_unrelaxed.gbw
Electron density file                           ... dvb_scan_unrelaxed.scfp
The origin for moment calculation is the CENTER OF MASS  = ( 1.747488,  2.009123  0.000000)

-------------
DIPOLE MOMENT
-------------
                                X             Y             Z
Electronic contribution:     -3.15122       0.80316      -0.00024
Nuclear contribution   :      3.12131      -1.79414       0.00000
                        -----------------------------------------
Total Dipole Moment    :     -0.02990      -0.99098      -0.00024
                        -----------------------------------------
Magnitude (a.u.)       :      0.99143
Magnitude (Debye)      :      2.52001



--------------------
Rotational spectrum 
--------------------
 
Rotational constants in cm-1:     0.138319     0.025058     0.021215 
Rotational constants in MHz :  4146.692775   751.230231   636.008563 

 Dipole components along the rotational axes: 
x,y,z [a.u.] :    -0.864925     0.484600    -0.000241 
x,y,z [Debye]:    -2.198464     1.231755    -0.000612 

 
                              **** TRAJECTORY DONE ***

                         SUMMARY OF THE CALCULATED SURFACE

------------------
TRAJECTORY RESULTS
------------------

Column   1: D7

The Calculated Surface using the 'Actual Energy'
   0.00000000 -378.12338325
  32.72727273 -381.41468548
  65.45454545 -381.84074075
  98.18181818 -381.93271322
 130.90909091 -382.00590691
 163.63636364 -382.03776696
 196.36363636 -382.03776695
 229.09090909 -382.00590682
 261.81818182 -381.93271426
 294.54545455 -381.84074055
 327.27272727 -381.41468529
 360.00000000 -378.12338339

The Calculated Surface using the SCF energy
   0.00000000 -378.12338325
  32.72727273 -381.41468548
  65.45454545 -381.84074075
  98.18181818 -381.93271322
 130.90909091 -382.00590691
 163.63636364 -382.03776696
 196.36363636 -382.03776695
 229.09090909 -382.00590682
 261.81818182 -381.93271426
 294.54545455 -381.84074055
 327.27272727 -381.41468529
 360.00000000 -378.12338339


Timings for individual modules:

Sum of individual times         ...      223.955 sec (=   3.733 min)
GTO integral calculation        ...        1.182 sec (=   0.020 min)   0.5 %
SCF iterations                  ...      222.773 sec (=   3.713 min)  99.5 %
                             ****ORCA TERMINATED NORMALLY****
TOTAL RUN TIME: 0 days 0 hours 3 minutes 45 seconds 367 msec
