
                                        *****************
                                        * O   R   C   A *
                                        *****************

                                            #,                                       
                                            ###                                      
                                            ####                                     
                                            #####                                    
                                            ######                                   
                                           ########,                                 
                                     ,,################,,,,,                         
                               ,,#################################,,                 
                          ,,##########################################,,             
                       ,#########################################, ''#####,          
                    ,#############################################,,   '####,        
                  ,##################################################,,,,####,       
                ,###########''''           ''''###############################       
              ,#####''   ,,,,##########,,,,          '''####'''          '####       
            ,##' ,,,,###########################,,,                        '##       
           ' ,,###''''                  '''############,,,                           
         ,,##''                                '''############,,,,        ,,,,,,###''
      ,#''                                            '''#######################'''  
     '                                                          ''''####''''         
             ,#######,   #######,   ,#######,      ##                                
            ,#'     '#,  ##    ##  ,#'     '#,    #''#        ######   ,####,        
            ##       ##  ##   ,#'  ##            #'  '#       #        #'  '#        
            ##       ##  #######   ##           ,######,      #####,   #    #        
            '#,     ,#'  ##    ##  '#,     ,#' ,#      #,         ##   #,  ,#        
             '#######'   ##     ##  '#######'  #'      '#     #####' # '####'        



                  #######################################################
                  #                        -***-                        #
                  #          Department of theory and spectroscopy      #
                  #    Directorship and core code : Frank Neese         #
                  #        Max Planck Institute fuer Kohlenforschung    #
                  #                Kaiser Wilhelm Platz 1               #
                  #                 D-45470 Muelheim/Ruhr               #
                  #                      Germany                        #
                  #                                                     #
                  #                  All rights reserved                #
                  #                        -***-                        #
                  #######################################################


                         Program Version 5.0.0 -  RELEASE  -
                                (SVN: $Rev: 19529$)
                ($Date: 2021-06-28 11:36:33 +0200 (Mo, 28 Jun 2021) $)


 With contributions from (in alphabetic order):
   Daniel Aravena         : Magnetic Suceptibility
   Michael Atanasov       : Ab Initio Ligand Field Theory (pilot matlab implementation)
   Alexander A. Auer      : GIAO ZORA, VPT2 properties, NMR spectrum
   Ute Becker             : Parallelization
   Giovanni Bistoni       : ED, misc. LED, open-shell LED, HFLD
   Martin Brehm           : Molecular dynamics
   Dmytro Bykov           : SCF Hessian
   Vijay G. Chilkuri      : MRCI spin determinant printing, contributions to CSF-ICE
   Dipayan Datta          : RHF DLPNO-CCSD density
   Achintya Kumar Dutta   : EOM-CC, STEOM-CC
   Dmitry Ganyushin       : Spin-Orbit,Spin-Spin,Magnetic field MRCI
   Miquel Garcia          : C-PCM Hessian, Gaussian charge scheme
   Yang Guo               : DLPNO-NEVPT2, F12-NEVPT2, CIM, IAO-localization
   Andreas Hansen         : Spin unrestricted coupled pair/coupled cluster methods
   Benjamin Helmich-Paris : MC-RPA, TRAH-SCF, COSX integrals
   Lee Huntington         : MR-EOM, pCC
   Robert Izsak           : Overlap fitted RIJCOSX, COSX-SCS-MP3, EOM
   Marcus Kettner         : VPT2
   Christian Kollmar      : KDIIS, OOCD, Brueckner-CCSD(T), CCSD density, CASPT2, CASPT2-K
   Simone Kossmann        : Meta GGA functionals, TD-DFT gradient, OOMP2, MP2 Hessian
   Martin Krupicka        : Initial AUTO-CI
   Lucas Lang             : DCDCAS
   Marvin Lechner         : AUTO-CI (C++ implementation), FIC-MRCC
   Dagmar Lenk            : GEPOL surface, SMD
   Dimitrios Liakos       : Extrapolation schemes; Compound Job, initial MDCI parallelization
   Dimitrios Manganas     : Further ROCIS development; embedding schemes
   Dimitrios Pantazis     : SARC Basis sets
   Anastasios Papadopoulos: AUTO-CI, single reference methods and gradients
   Taras Petrenko         : DFT Hessian,TD-DFT gradient, ASA, ECA, R-Raman, ABS, FL, XAS/XES, NRVS
   Peter Pinski           : DLPNO-MP2, DLPNO-MP2 Gradient
   Christoph Reimann      : Effective Core Potentials
   Marius Retegan         : Local ZFS, SOC
   Christoph Riplinger    : Optimizer, TS searches, QM/MM, DLPNO-CCSD(T), (RO)-DLPNO pert. Triples
   Tobias Risthaus        : Range-separated hybrids, TD-DFT gradient, RPA, STAB
   Michael Roemelt        : Original ROCIS implementation
   Masaaki Saitow         : Open-shell DLPNO-CCSD energy and density
   Barbara Sandhoefer     : DKH picture change effects
   Avijit Sen             : IP-ROCIS
   Kantharuban Sivalingam : CASSCF convergence, NEVPT2, FIC-MRCI
   Bernardo de Souza      : ESD, SOC TD-DFT
   Georgi Stoychev        : AutoAux, RI-MP2 NMR
   Willem Van den Heuvel  : Paramagnetic NMR
   Boris Wezisla          : Elementary symmetry handling
   Frank Wennmohs         : Technical directorship


 We gratefully acknowledge several colleagues who have allowed us to
 interface, adapt or use parts of their codes:
   Stefan Grimme, W. Hujo, H. Kruse, P. Pracht,  : VdW corrections, initial TS optimization,
                  C. Bannwarth, S. Ehlert          DFT functionals, gCP, sTDA/sTD-DF
   Ed Valeev, F. Pavosevic, A. Kumar             : LibInt (2-el integral package), F12 methods
   Garnet Chan, S. Sharma, J. Yang, R. Olivares  : DMRG
   Ulf Ekstrom                                   : XCFun DFT Library
   Mihaly Kallay                                 : mrcc  (arbitrary order and MRCC methods)
   Jiri Pittner, Ondrej Demel                    : Mk-CCSD
   Frank Weinhold                                : gennbo (NPA and NBO analysis)
   Christopher J. Cramer and Donald G. Truhlar   : smd solvation model
   Lars Goerigk                                  : TD-DFT with DH, B97 family of functionals
   V. Asgeirsson, H. Jonsson                     : NEB implementation
   FAccTs GmbH                                   : IRC, NEB, NEB-TS, DLPNO-Multilevel, CI-OPT
                                                   MM, QMMM, 2- and 3-layer-ONIOM, Crystal-QMMM,
                                                   LR-CPCM, SF, NACMEs, symmetry and pop. for TD-DFT,
                                                   nearIR, NL-DFT gradient (VV10), updates on ESD,
                                                   ML-optimized integration grids
   S Lehtola, MJT Oliveira, MAL Marques          : LibXC Library
   Liviu Ungur et al                             : ANISO software


 Your calculation uses the libint2 library for the computation of 2-el integrals
 For citations please refer to: http://libint.valeyev.net

 Your ORCA version has been built with support for libXC version: 5.1.0
 For citations please refer to: https://tddft.org/programs/libxc/

 This ORCA versions uses:
   CBLAS   interface :  Fast vector & matrix operations
   LAPACKE interface :  Fast linear algebra routines
   SCALAPACK package :  Parallel linear algebra routines
   Shared memory     :  Shared parallel matrices
   BLAS/LAPACK       :  OpenBLAS 0.3.15  USE64BITINT DYNAMIC_ARCH NO_AFFINITY Haswell SINGLE_THREADED
        Core in use  :  Haswell
   Copyright (c) 2011-2014, The OpenBLAS Project


Your calculation utilizes the atom-pairwise dispersion correction
with the zero-damping scheme (D30)
Cite in your paper:
S.Grimme, J.Antony, S.Ehrlich and H.Krieg, J.Chem.Phys., 132, (2010), 154104 
   

================================================================================

----- Orbital basis set information -----
Your calculation utilizes the basis: STO-3G
   H-Ne       : W. J. Hehre, R. F. Stewart and J. A. Pople, J. Chem. Phys. 2657 (1969).
   Na-Ar      : W. J. Hehre, R. Ditchfield, R. F. Stewart and J. A. Pople, J. Chem. Phys. 2769 (1970).
   K,Ca,Ga-Kr : W. J. Pietro, B. A. Levy, W. J. Hehre and R. F. Stewart, J. Am. Chem. Soc. 19, 2225 (1980).
   Sc-Zn,Y-Cd : W. J. Pietro and W. J. Hehre, J. Comp. Chem. 4, 241 (1983).

================================================================================
                                        WARNINGS
                       Please study these warnings very carefully!
================================================================================


INFO   : the flag for use of the SHARK integral package has been found!

================================================================================
                                       INPUT FILE
================================================================================
NAME = dvb_dispersion_bp86_d3zero.in
|  1> ! rks bp86 sto-3g nori nousesym noautostart d3zero verytightscf
|  2> 
|  3> %output
|  4>     PrintLevel Normal
|  5>     Print[ P_Basis] 2
|  6>     Print[ P_MOs ] 1
|  7>     Print[ P_Overlap ] 1
|  8> end
|  9> 
| 10> * xyz 0 1
| 11>     C                  0.27867948   -1.36683162    0.00000000
| 12>     C                  1.32303041   -0.44173575    0.00000000
| 13>     C                  1.04434506    0.92484978    0.00000000
| 14>     C                 -0.27867948    1.36683162    0.00000000
| 15>     C                 -1.32303041    0.44173575    0.00000000
| 16>     C                 -1.04434506   -0.92484978    0.00000000
| 17>     H                  2.36595443   -0.79037726    0.00000000
| 18>     H                  1.86746094    1.65407997    0.00000000
| 19>     H                 -2.36595443    0.79037726    0.00000000
| 20>     H                 -1.86746094   -1.65407997    0.00000000
| 21>     C                 -0.58659169    2.87589931    0.00000000
| 22>     C                  0.36350188    3.80076420    0.00000000
| 23>     H                 -1.65647768    3.12394312    0.00000000
| 24>     H                  0.14429560    4.87693235    0.00000000
| 25>     H                  1.43338788    3.55272039    0.00000000
| 26>     C                  0.58659169   -2.87589931    0.00000000
| 27>     C                 -0.36350188   -3.80076420    0.00000000
| 28>     H                  1.65647768   -3.12394312    0.00000000
| 29>     H                 -0.14429560   -4.87693235    0.00000000
| 30>     H                 -1.43338788   -3.55272039    0.00000000
| 31> *
| 32> 
| 33>                          ****END OF INPUT****
================================================================================

                       ****************************
                       * Single Point Calculation *
                       ****************************

---------------------------------
CARTESIAN COORDINATES (ANGSTROEM)
---------------------------------
  C      0.278679   -1.366832    0.000000
  C      1.323030   -0.441736    0.000000
  C      1.044345    0.924850    0.000000
  C     -0.278679    1.366832    0.000000
  C     -1.323030    0.441736    0.000000
  C     -1.044345   -0.924850    0.000000
  H      2.365954   -0.790377    0.000000
  H      1.867461    1.654080    0.000000
  H     -2.365954    0.790377    0.000000
  H     -1.867461   -1.654080    0.000000
  C     -0.586592    2.875899    0.000000
  C      0.363502    3.800764    0.000000
  H     -1.656478    3.123943    0.000000
  H      0.144296    4.876932    0.000000
  H      1.433388    3.552720    0.000000
  C      0.586592   -2.875899    0.000000
  C     -0.363502   -3.800764    0.000000
  H      1.656478   -3.123943    0.000000
  H     -0.144296   -4.876932    0.000000
  H     -1.433388   -3.552720    0.000000

----------------------------
CARTESIAN COORDINATES (A.U.)
----------------------------
  NO LB      ZA    FRAG     MASS         X           Y           Z
   0 C     6.0000    0    12.011    0.526628   -2.582937    0.000000
   1 C     6.0000    0    12.011    2.500165   -0.834760    0.000000
   2 C     6.0000    0    12.011    1.973526    1.747713    0.000000
   3 C     6.0000    0    12.011   -0.526628    2.582937    0.000000
   4 C     6.0000    0    12.011   -2.500165    0.834760    0.000000
   5 C     6.0000    0    12.011   -1.973526   -1.747713    0.000000
   6 H     1.0000    0     1.008    4.471006   -1.493597    0.000000
   7 H     1.0000    0     1.008    3.528990    3.125758    0.000000
   8 H     1.0000    0     1.008   -4.471006    1.493597    0.000000
   9 H     1.0000    0     1.008   -3.528990   -3.125758    0.000000
  10 C     6.0000    0    12.011   -1.108498    5.434662    0.000000
  11 C     6.0000    0    12.011    0.686919    7.182403    0.000000
  12 H     1.0000    0     1.008   -3.130289    5.903397    0.000000
  13 H     1.0000    0     1.008    0.272679    9.216067    0.000000
  14 H     1.0000    0     1.008    2.708711    6.713669    0.000000
  15 C     6.0000    0    12.011    1.108498   -5.434662    0.000000
  16 C     6.0000    0    12.011   -0.686919   -7.182403    0.000000
  17 H     1.0000    0     1.008    3.130289   -5.903397    0.000000
  18 H     1.0000    0     1.008   -0.272679   -9.216067    0.000000
  19 H     1.0000    0     1.008   -2.708711   -6.713669    0.000000

--------------------------------
INTERNAL COORDINATES (ANGSTROEM)
--------------------------------
 C      0   0   0     0.000000000000     0.00000000     0.00000000
 C      1   0   0     1.395159931220     0.00000000     0.00000000
 C      2   1   0     1.394711990022   120.00864270     0.00000000
 C      3   2   1     1.394898519725   119.99907158     0.00000000
 C      4   3   2     1.395159931220   119.99228572     0.00000000
 C      5   4   3     1.394711990022   120.00864270     0.00000000
 H      2   1   3     1.099655134116   119.98078866   180.00000000
 H      3   2   1     1.099680145277   120.01279270   180.00000000
 H      5   4   3     1.099655134116   119.98078866   180.00000000
 H      6   5   4     1.099680145277   120.01279270   180.00000000
 C      4   3   2     1.540160777993   120.00529475   180.00000000
 C     11   4   3     1.325915855743   122.69669283     0.00000000
 H     11   4   3     1.098263066518   114.58532990   180.00000000
 H     12  11   4     1.098266488729   122.71593921   180.00000085
 H     12  11   4     1.098263076260   122.71797739     0.00000000
 C      1   2   3     1.540160777993   120.00241953   180.00000085
 C     16   1   2     1.325915855743   122.69669283   180.00000000
 H     16   1   2     1.098263066518   114.58532990     0.00000000
 H     17  16   1     1.098266488729   122.71593921   180.00000085
 H     17  16   1     1.098263076260   122.71797739     0.00000000

---------------------------
INTERNAL COORDINATES (A.U.)
---------------------------
 C      0   0   0     0.000000000000     0.00000000     0.00000000
 C      1   0   0     2.636470183027     0.00000000     0.00000000
 C      2   1   0     2.635623696837   120.00864270     0.00000000
 C      3   2   1     2.635976186893   119.99907158     0.00000000
 C      4   3   2     2.636470183027   119.99228572     0.00000000
 C      5   4   3     2.635623696837   120.00864270     0.00000000
 H      2   1   3     2.078047045240   119.98078866   180.00000000
 H      3   2   1     2.078094309484   120.01279270   180.00000000
 H      5   4   3     2.078047045240   119.98078866   180.00000000
 H      6   5   4     2.078094309484   120.01279270   180.00000000
 C      4   3   2     2.910482072614   120.00529475   180.00000000
 C     11   4   3     2.505617843978   122.69669283     0.00000000
 H     11   4   3     2.075416418720   114.58532990   180.00000000
 H     12  11   4     2.075422885762   122.71593921   180.00000085
 H     12  11   4     2.075416437129   122.71797739     0.00000000
 C      1   2   3     2.910482072614   120.00241953   180.00000085
 C     16   1   2     2.505617843978   122.69669283   180.00000000
 H     16   1   2     2.075416418720   114.58532990     0.00000000
 H     17  16   1     2.075422885762   122.71593921   180.00000085
 H     17  16   1     2.075416437129   122.71797739     0.00000000

---------------------
BASIS SET INFORMATION
---------------------
There are 2 groups of distinct atoms

 Group   1 Type C   : 6s3p contracted to 2s1p pattern {33/3}
 Group   2 Type H   : 3s contracted to 1s pattern {3}

Atom   0C    basis set group =>   1
Atom   1C    basis set group =>   1
Atom   2C    basis set group =>   1
Atom   3C    basis set group =>   1
Atom   4C    basis set group =>   1
Atom   5C    basis set group =>   1
Atom   6H    basis set group =>   2
Atom   7H    basis set group =>   2
Atom   8H    basis set group =>   2
Atom   9H    basis set group =>   2
Atom  10C    basis set group =>   1
Atom  11C    basis set group =>   1
Atom  12H    basis set group =>   2
Atom  13H    basis set group =>   2
Atom  14H    basis set group =>   2
Atom  15C    basis set group =>   1
Atom  16C    basis set group =>   1
Atom  17H    basis set group =>   2
Atom  18H    basis set group =>   2
Atom  19H    basis set group =>   2

-------------------------
BASIS SET IN INPUT FORMAT
-------------------------

 # Basis set for element : H 
 NewGTO H 
 S 3 
   1       3.4252509100      0.1543289707
   2       0.6239137300      0.5353281424
   3       0.1688554000      0.4446345420
  end;

 # Basis set for element : C 
 NewGTO C 
 S 3 
   1      71.6168370000      0.1543289700
   2      13.0450960000      0.5353281400
   3       3.5305122000      0.4446345400
 S 3 
   1       2.9412494000     -0.0999672301
   2       0.6834831000      0.3995128303
   3       0.2222899000      0.7001154705
 P 3 
   1       2.9412494000      0.1559162721
   2       0.6834831000      0.6076837282
   3       0.2222899000      0.3919573953
  end;

------------------------------------------------------------------------------
                           ORCA GTO INTEGRAL CALCULATION
------------------------------------------------------------------------------
------------------------------------------------------------------------------
                   ___                                                        
                  /   \      - P O W E R E D   B Y -                         
                 /     \                                                     
                 |  |  |   _    _      __       _____    __    __             
                 |  |  |  | |  | |    /  \     |  _  \  |  |  /  |          
                  \  \/   | |  | |   /    \    | | | |  |  | /  /          
                 / \  \   | |__| |  /  /\  \   | |_| |  |  |/  /          
                |  |  |   |  __  | /  /__\  \  |    /   |      \           
                |  |  |   | |  | | |   __   |  |    \   |  |\   \          
                \     /   | |  | | |  |  |  |  | |\  \  |  | \   \       
                 \___/    |_|  |_| |__|  |__|  |_| \__\ |__|  \__/        
                                                                              
                      - O R C A' S   B I G   F R I E N D -                    
                                      &                                       
                       - I N T E G R A L  F E E D E R -                       
                                                                              
 v1 FN, 2020, v2 2021                                                         
------------------------------------------------------------------------------


Reading SHARK input file dvb_dispersion_bp86_d3zero.SHARKINP.tmp ... ok
----------------------
SHARK INTEGRAL PACKAGE
----------------------

Number of atoms                             ...     20
Number of basis functions                   ...     60
Number of shells                            ...     40
Maximum angular momentum                    ...      1
Integral batch strategy                     ... SHARK/LIBINT Hybrid
RI-J (if used) integral strategy            ... SPLIT-RIJ (Revised 2003 algorithm where possible)
Printlevel                                  ...      2
Contraction scheme used                     ... SEGMENTED contraction
Coulomb Range Separation                    ... NOT USED
Exchange Range Separation                   ... NOT USED
Finite Nucleus Model                        ... NOT USED
Auxiliary Coulomb fitting basis             ... NOT available
Auxiliary J/K fitting basis                 ... NOT available
Auxiliary Correlation fitting basis         ... NOT available
Auxiliary 'external' fitting basis          ... NOT available
Integral threshold                          ...     1.000000e-12
Primitive cut-off                           ...     1.000000e-14
Primitive pair pre-selection threshold      ...     1.000000e-14

Calculating pre-screening integrals         ... done (  0.0 sec) Dimension = 40
Organizing shell pair data                  ... done (  0.0 sec)
Shell pair information
Total number of shell pairs                 ...       820
Shell pairs after pre-screening             ...       767
Total number of primitive shell pairs       ...      7380
Primitive shell pairs kept                  ...      5227
          la=0 lb=0:    418 shell pairs
          la=1 lb=0:    294 shell pairs
          la=1 lb=1:     55 shell pairs

Calculating one electron integrals          ... done (  0.0 sec)
Calculating Nuclear repulsion               ... done (  0.0 sec) ENN=    450.006136069687 Eh

SHARK setup successfully completed in   0.0 seconds

Maximum memory used throughout the entire GTOINT-calculation: 6.0 MB
-------------------------------------------------------------------------------
                                 ORCA SCF
-------------------------------------------------------------------------------

------------
SCF SETTINGS
------------
Hamiltonian:
 Density Functional     Method          .... DFT(GTOs)
 Exchange Functional    Exchange        .... B88
   X-Alpha parameter    XAlpha          ....  0.666667
   Becke's b parameter  XBeta           ....  0.004200
 Correlation Functional Correlation     .... P86
 LDA part of GGA corr.  LDAOpt          .... PW91-LDA
 Gradients option       PostSCFGGA      .... off
   Density functional embedding theory  .... OFF


General Settings:
 Integral files         IntName         .... dvb_dispersion_bp86_d3zero
 Hartree-Fock type      HFTyp           .... RHF
 Total Charge           Charge          ....    0
 Multiplicity           Mult            ....    1
 Number of Electrons    NEL             ....   70
 Basis Dimension        Dim             ....   60
 Nuclear Repulsion      ENuc            ....    450.0061360697 Eh

Convergence Acceleration:
 DIIS                   CNVDIIS         .... on
   Start iteration      DIISMaxIt       ....    12
   Startup error        DIISStart       ....  0.200000
   # of expansion vecs  DIISMaxEq       ....     5
   Bias factor          DIISBfac        ....   1.050
   Max. coefficient     DIISMaxC        ....  10.000
 Trust-Rad. Augm. Hess. CNVTRAH         .... auto
   Auto Start mean grad. ratio tolernc. ....  1.125000
   Auto Start start iteration           ....    20
   Auto Start num. interpolation iter.  ....    10
   Max. Number of Micro iterations      ....    16
   Max. Number of Macro iterations      .... Maxiter - #DIIS iter
   Number of Davidson start vectors     ....     2
   Converg. threshold I  (grad. norm)   ....   2.000e-06
   Converg. threshold II (energy diff.) ....   1.000e-09
   Grad. Scal. Fac. for Micro threshold ....   0.100
   Minimum threshold for Micro iter.    ....   0.010
   NR start threshold (gradient norm)   ....   0.001
   Initial trust radius                 ....   0.400
   Minimum AH scaling param. (alpha)    ....   1.000
   Maximum AH scaling param. (alpha)    .... 1000.000
   Orbital update algorithm             .... Taylor
   White noise on init. David. guess    .... on
   Maximum white noise                  ....   0.010
   Quad. conv. algorithm                .... NR
 SOSCF                  CNVSOSCF        .... on
   Start iteration      SOSCFMaxIt      ....   150
   Startup grad/error   SOSCFStart      ....  0.003300
 Level Shifting         CNVShift        .... on
   Level shift para.    LevelShift      ....    0.2500
   Turn off err/grad.   ShiftErr        ....    0.0010
 Zerner damping         CNVZerner       .... off
 Static damping         CNVDamp         .... on
   Fraction old density DampFac         ....    0.7000
   Max. Damping (<1)    DampMax         ....    0.9800
   Min. Damping (>=0)   DampMin         ....    0.0000
   Turn off err/grad.   DampErr         ....    0.1000
 Fernandez-Rico         CNVRico         .... off

SCF Procedure:
 Maximum # iterations   MaxIter         ....   125
 SCF integral mode      SCFMode         .... Direct
   Integral package                     .... SHARK and LIBINT hybrid scheme
 Reset frequency        DirectResetFreq ....    20
 Integral Threshold     Thresh          ....  1.000e-12 Eh
 Primitive CutOff       TCut            ....  1.000e-14 Eh

Convergence Tolerance:
 Convergence Check Mode ConvCheckMode   .... Total+1el-Energy
 Convergence forced     ConvForced      .... 0
 Energy Change          TolE            ....  1.000e-09 Eh
 1-El. energy change                    ....  1.000e-06 Eh
 Orbital Gradient       TolG            ....  2.000e-06
 Orbital Rotation angle TolX            ....  2.000e-06
 DIIS Error             TolErr          ....  1.000e-08


Diagonalization of the overlap matrix:
Smallest eigenvalue                        ... 1.714e-01
Time for diagonalization                   ...    0.001 sec
Threshold for overlap eigenvalues          ... 1.000e-08
Number of eigenvalues below threshold      ... 0
Time for construction of square roots      ...    0.000 sec
Total time needed                          ...    0.001 sec

----------------------
SHARK INTEGRAL PACKAGE
----------------------

Number of atoms                             ...     20
Number of basis functions                   ...     60
Number of shells                            ...     40
Maximum angular momentum                    ...      1
Integral batch strategy                     ... SHARK/LIBINT Hybrid
RI-J (if used) integral strategy            ... SPLIT-RIJ (Revised 2003 algorithm where possible)
Printlevel                                  ...      2
Contraction scheme used                     ... SEGMENTED contraction
Coulomb Range Separation                    ... NOT USED
Exchange Range Separation                   ... NOT USED
Finite Nucleus Model                        ... NOT USED
Auxiliary Coulomb fitting basis             ... NOT available
Auxiliary J/K fitting basis                 ... NOT available
Auxiliary Correlation fitting basis         ... NOT available
Auxiliary 'external' fitting basis          ... NOT available
Integral threshold                          ...     1.000000e-12
Primitive cut-off                           ...     1.000000e-14
Primitive pair pre-selection threshold      ...     1.000000e-14

--------------
OVERLAP MATRIX
--------------
                  0          1          2          3          4          5    
      0       1.000000   0.248362   0.000000  -0.000000   0.000000   0.000001
      1       0.248362   1.000000   0.000000   0.000000   0.000000   0.037948
      2       0.000000   0.000000   1.000000   0.000000   0.000000   0.000000
      3      -0.000000   0.000000   0.000000   1.000000   0.000000   0.047095
      4       0.000000   0.000000   0.000000   0.000000   1.000000   0.041717
      5       0.000001   0.037948   0.000000   0.047095   0.041717   1.000000
      6       0.037948   0.367071   0.000000   0.291669   0.258363   0.248362
      7       0.000000   0.000000   0.214903   0.000000   0.000000   0.000000
      8      -0.047095  -0.291669   0.000000  -0.089353  -0.269513   0.000000
      9      -0.041717  -0.258363   0.000000  -0.269513  -0.023834  -0.000000
     10       0.000000   0.001843   0.000000   0.001344   0.004024   0.000001
     11       0.001843   0.061276   0.000000   0.028565   0.085498   0.037989
     12       0.000000   0.000000   0.025662   0.000000   0.000000   0.000000
     13      -0.001344  -0.028565   0.000000   0.010958  -0.044008   0.012585
     14      -0.004024  -0.085498   0.000000  -0.044008  -0.106056  -0.061711
     15       0.000000   0.000422   0.000000  -0.000224   0.001098   0.000000
     16       0.000422   0.026385   0.000000  -0.008467   0.041527   0.001845
     17       0.000000   0.000000   0.010188   0.000000   0.000000   0.000000
     18       0.000224   0.008467   0.000000   0.007258   0.014371   0.002816
     19      -0.001098  -0.041527   0.000000   0.014371  -0.060298  -0.003179
     20       0.000000   0.001845   0.000000  -0.002816   0.003179   0.000000
     21       0.001845   0.061320   0.000000  -0.059803   0.067527   0.000423
     22       0.000000   0.000000   0.025682   0.000000   0.000000   0.000000
     23       0.002816   0.059803   0.000000  -0.038717   0.072716   0.001064
     24      -0.003179  -0.067527   0.000000   0.072716  -0.056425  -0.000355
     25       0.000001   0.037972   0.000000  -0.059710   0.019947   0.000000
     26       0.037972   0.367203   0.000000  -0.369656   0.123491   0.001843
     27       0.000000   0.000000   0.215005   0.000000   0.000000   0.000000
     28       0.059710   0.369656   0.000000  -0.273573   0.163219   0.004157
     29      -0.019947  -0.123491   0.000000   0.163219   0.160479   0.000848
     30       0.005291   0.095590   0.000000   0.119141   0.032904   0.060887
     31       0.000092   0.006444   0.000000   0.004973   0.009456   0.005291
     32       0.000092   0.006450   0.000000  -0.008286   0.006759   0.000012
     33       0.005292   0.095614   0.000000  -0.122535  -0.016401   0.000092
     34       0.000000   0.000000   0.000000  -0.000000   0.000000   0.000000
     35       0.000000   0.000293   0.000000  -0.000129   0.000632   0.000002
     36       0.000000   0.000000   0.000094   0.000000   0.000000   0.000000
     37       0.000000   0.000129   0.000000   0.000037   0.000282   0.000004
     38      -0.000000  -0.000632   0.000000   0.000282  -0.001287  -0.000007
     39       0.000000   0.000000   0.000000   0.000000   0.000000   0.000000
     40       0.000000   0.000012   0.000000   0.000001   0.000032   0.000000
     41       0.000000   0.000000   0.000004   0.000000   0.000000   0.000000
     42      -0.000000  -0.000001   0.000000   0.000004  -0.000001   0.000000
     43      -0.000000  -0.000032   0.000000  -0.000001  -0.000078  -0.000000
     44       0.000000   0.000086   0.000000  -0.000073   0.000170   0.000000
     45       0.000000   0.000000   0.000000  -0.000000   0.000001   0.000000
     46       0.000000   0.000049   0.000000   0.000025   0.000106   0.000007
     47       0.000000   0.026588   0.000000   0.008914  -0.043687   0.000000
     48       0.026588   0.298494   0.000000   0.067246  -0.329571   0.001144
     49       0.000000   0.000000   0.164306   0.000000   0.000000   0.000000
     50      -0.008914  -0.067246   0.000000   0.145184   0.093716   0.000802
     51       0.043687   0.329571   0.000000   0.093716  -0.294992   0.002650
     52       0.000000   0.001263   0.000000  -0.000772  -0.002927   0.000000
     53       0.001263   0.049268   0.000000  -0.018955  -0.071842   0.000003
     54       0.000000   0.000000   0.020155   0.000000   0.000000   0.000000
     55       0.000772   0.018955   0.000000   0.012160  -0.030299   0.000006
     56       0.002927   0.071842   0.000000  -0.030299  -0.094683   0.000011
     57       0.004445   0.084383   0.000000   0.068398  -0.087228   0.001149
     58       0.000056   0.004732   0.000000  -0.000959  -0.007955   0.000000
     59       0.000909   0.028273   0.000000  -0.025743  -0.032867   0.000003
                  6          7          8          9         10         11    
      0       0.037948   0.000000  -0.047095  -0.041717   0.000000   0.001843
      1       0.367071   0.000000  -0.291669  -0.258363   0.001843   0.061276
      2       0.000000   0.214903   0.000000   0.000000   0.000000   0.000000
      3       0.291669   0.000000  -0.089353  -0.269513   0.001344   0.028565
      4       0.258363   0.000000  -0.269513  -0.023834   0.004024   0.085498
      5       0.248362   0.000000   0.000000  -0.000000   0.000001   0.037989
      6       1.000000   0.000000   0.000000   0.000000   0.037989   0.367296
      7       0.000000   1.000000   0.000000   0.000000   0.000000   0.000000
      8       0.000000   0.000000   1.000000   0.000000  -0.012585  -0.077889
      9       0.000000   0.000000   0.000000   1.000000   0.061711   0.381945
     10       0.037989   0.000000  -0.012585   0.061711   1.000000   0.248362
     11       0.367296   0.000000  -0.077889   0.381945   0.248362   1.000000
     12       0.000000   0.215078   0.000000   0.000000   0.000000   0.000000
     13       0.077889   0.000000   0.193390   0.106348  -0.000000   0.000000
     14      -0.381945   0.000000   0.106348  -0.306418   0.000000  -0.000000
     15       0.001845   0.000000  -0.002816   0.003179   0.000001   0.037972
     16       0.061320   0.000000  -0.059803   0.067527   0.037972   0.367203
     17       0.000000   0.025682   0.000000   0.000000   0.000000   0.000000
     18       0.059803   0.000000  -0.038717   0.072716   0.059710   0.369656
     19      -0.067527   0.000000   0.072716  -0.056425  -0.019947  -0.123491
     20       0.000423   0.000000  -0.001064   0.000355   0.000000   0.001843
     21       0.026400   0.000000  -0.040221   0.013429   0.001843   0.061281
     22       0.000000   0.010194   0.000000   0.000000   0.000000   0.000000
     23       0.040221   0.000000  -0.055891   0.022065   0.004157   0.088329
     24      -0.013429   0.000000   0.022065   0.002827   0.000848   0.018025
     25       0.001843   0.000000  -0.004157  -0.000848   0.000000   0.000422
     26       0.061281   0.000000  -0.088329  -0.018025   0.000422   0.026380
     27       0.000000   0.025664   0.000000   0.000000   0.000000   0.000000
     28       0.088329   0.000000  -0.114912  -0.028688   0.000839   0.031722
     29       0.018025   0.000000  -0.028688   0.019810   0.000743   0.028093
     30       0.485213   0.000000   0.440005  -0.147090   0.005292   0.095605
     31       0.095597   0.000000   0.031078   0.119638   0.060884   0.485198
     32       0.001847   0.000000  -0.003153   0.001053   0.000092   0.006449
     33       0.006447   0.000000  -0.009991  -0.003797   0.000012   0.001846
     34       0.000002   0.000000  -0.000004   0.000007   0.000000   0.001145
     35       0.001528   0.000000  -0.001517   0.002636   0.001145   0.046553
     36       0.000000   0.000509   0.000000   0.000000   0.000000   0.000000
     37       0.001517   0.000000  -0.001039   0.002690   0.001777   0.045307
     38      -0.002636   0.000000   0.002690  -0.004164  -0.002126  -0.054200
     39       0.000000   0.000000  -0.000000   0.000000   0.000000   0.000206
     40       0.000274   0.000000  -0.000133   0.000590   0.000206   0.017611
     41       0.000000   0.000088   0.000000   0.000000   0.000000   0.000000
     42       0.000133   0.000000   0.000022   0.000291   0.000133   0.006756
     43      -0.000590   0.000000   0.000291  -0.001200  -0.000562  -0.028538
     44       0.000192   0.000000  -0.000254   0.000304   0.000069   0.005410
     45       0.000012   0.000000  -0.000006   0.000027   0.000006   0.001166
     46       0.001372   0.000000   0.000069   0.002514   0.001328   0.036482
     47       0.001144   0.000000  -0.000802  -0.002650   0.000000   0.000002
     48       0.046534   0.000000  -0.020449  -0.067591   0.000002   0.001527
     49       0.000000   0.018926   0.000000   0.000000   0.000000   0.000000
     50       0.020449   0.000000   0.009092  -0.032504   0.000001   0.000363
     51       0.067591   0.000000  -0.032504  -0.088509   0.000008   0.003017
     52       0.000003   0.000000  -0.000006  -0.000011   0.000000   0.000000
     53       0.001892   0.000000  -0.001666  -0.003319   0.000000   0.000032
     54       0.000000   0.000634   0.000000   0.000000   0.000000   0.000000
     55       0.001666   0.000000  -0.000878  -0.003012   0.000000   0.000022
     56       0.003319   0.000000  -0.003012  -0.005364   0.000000   0.000075
     57       0.033093   0.000000   0.005940  -0.047784   0.000005   0.001035
     58       0.000178   0.000000  -0.000115  -0.000348   0.000000   0.000002
     59       0.000866   0.000000  -0.001082  -0.001221   0.000000   0.000039
                 12         13         14         15         16         17    
      0       0.000000  -0.001344  -0.004024   0.000000   0.000422   0.000000
      1       0.000000  -0.028565  -0.085498   0.000422   0.026385   0.000000
      2       0.025662   0.000000   0.000000   0.000000   0.000000   0.010188
      3       0.000000   0.010958  -0.044008  -0.000224  -0.008467   0.000000
      4       0.000000  -0.044008  -0.106056   0.001098   0.041527   0.000000
      5       0.000000   0.012585  -0.061711   0.000000   0.001845   0.000000
      6       0.000000   0.077889  -0.381945   0.001845   0.061320   0.000000
      7       0.215078   0.000000   0.000000   0.000000   0.000000   0.025682
      8       0.000000   0.193390   0.106348  -0.002816  -0.059803   0.000000
      9       0.000000   0.106348  -0.306418   0.003179   0.067527   0.000000
     10       0.000000  -0.000000   0.000000   0.000001   0.037972   0.000000
     11       0.000000   0.000000  -0.000000   0.037972   0.367203   0.000000
     12       1.000000   0.000000   0.000000   0.000000   0.000000   0.215005
     13       0.000000   1.000000   0.000000  -0.059710  -0.369656   0.000000
     14       0.000000   0.000000   1.000000   0.019947   0.123491   0.000000
     15       0.000000  -0.059710   0.019947   1.000000   0.248362   0.000000
     16       0.000000  -0.369656   0.123491   0.248362   1.000000   0.000000
     17       0.215005   0.000000   0.000000   0.000000   0.000000   1.000000
     18       0.000000  -0.273573   0.163219   0.000000   0.000000   0.000000
     19       0.000000   0.163219   0.160479  -0.000000  -0.000000   0.000000
     20       0.000000  -0.004157  -0.000848   0.000001   0.037948   0.000000
     21       0.000000  -0.088329  -0.018025   0.037948   0.367071   0.000000
     22       0.025664   0.000000   0.000000   0.000000   0.000000   0.214903
     23       0.000000  -0.114912  -0.028688   0.047095   0.291669   0.000000
     24       0.000000  -0.028688   0.019810   0.041717   0.258363   0.000000
     25       0.000000  -0.000839  -0.000743   0.000000   0.001843   0.000000
     26       0.000000  -0.031722  -0.028093   0.001843   0.061276   0.000000
     27       0.010185   0.000000   0.000000   0.000000   0.000000   0.025662
     28       0.000000  -0.030955  -0.036433   0.001344   0.028565   0.000000
     29       0.000000  -0.036433  -0.022079   0.004024   0.085498   0.000000
     30       0.000000   0.075450  -0.097921   0.000092   0.006450   0.000000
     31       0.000000   0.347255   0.307646   0.005292   0.095614   0.000000
     32       0.000000  -0.010683  -0.000421   0.005291   0.095590   0.000000
     33       0.000000  -0.002486  -0.002202   0.000092   0.006444   0.000000
     34       0.000000  -0.001777   0.002126   0.000000   0.026588   0.000000
     35       0.000000  -0.045307   0.054200   0.026588   0.298494   0.000000
     36       0.018934   0.000000   0.000000   0.000000   0.000000   0.164306
     37       0.000000  -0.029319   0.057725   0.008914   0.067246   0.000000
     38       0.000000   0.057725  -0.050120  -0.043687  -0.329571   0.000000
     39       0.000000  -0.000133   0.000562   0.000000   0.001263   0.000000
     40       0.000000  -0.006756   0.028538   0.001263   0.049268   0.000000
     41       0.006590   0.000000   0.000000   0.000000   0.000000   0.020155
     42       0.000000   0.003819   0.011704  -0.000772  -0.018955   0.000000
     43       0.000000   0.011704  -0.042848  -0.002927  -0.071842   0.000000
     44       0.000000  -0.007040   0.005732   0.004445   0.084383   0.000000
     45       0.000000  -0.000479   0.002105   0.000056   0.004732   0.000000
     46       0.000000   0.007701   0.052018   0.000909   0.028273   0.000000
     47       0.000000  -0.000001  -0.000008   0.000000   0.000000   0.000000
     48       0.000000  -0.000363  -0.003017   0.000000   0.000293   0.000000
     49       0.000508   0.000000   0.000000   0.000000   0.000000   0.000094
     50       0.000000   0.000419  -0.000738  -0.000000  -0.000129   0.000000
     51       0.000000  -0.000738  -0.005619   0.000000   0.000632   0.000000
     52       0.000000  -0.000000  -0.000000   0.000000   0.000000   0.000000
     53       0.000000  -0.000022  -0.000075   0.000000   0.000012   0.000000
     54       0.000010   0.000000   0.000000   0.000000   0.000000   0.000004
     55       0.000000  -0.000006  -0.000054   0.000000   0.000001   0.000000
     56       0.000000  -0.000054  -0.000170   0.000000   0.000032   0.000000
     57       0.000000   0.000289  -0.001909   0.000000   0.000086   0.000000
     58       0.000000  -0.000001  -0.000005   0.000000   0.000000   0.000000
     59       0.000000  -0.000043  -0.000077   0.000000   0.000049   0.000000
                 18         19         20         21         22         23    
      0       0.000224  -0.001098   0.000000   0.001845   0.000000   0.002816
      1       0.008467  -0.041527   0.001845   0.061320   0.000000   0.059803
      2       0.000000   0.000000   0.000000   0.000000   0.025682   0.000000
      3       0.007258   0.014371  -0.002816  -0.059803   0.000000  -0.038717
      4       0.014371  -0.060298   0.003179   0.067527   0.000000   0.072716
      5       0.002816  -0.003179   0.000000   0.000423   0.000000   0.001064
      6       0.059803  -0.067527   0.000423   0.026400   0.000000   0.040221
      7       0.000000   0.000000   0.000000   0.000000   0.010194   0.000000
      8      -0.038717   0.072716  -0.001064  -0.040221   0.000000  -0.055891
      9       0.072716  -0.056425   0.000355   0.013429   0.000000   0.022065
     10       0.059710  -0.019947   0.000000   0.001843   0.000000   0.004157
     11       0.369656  -0.123491   0.001843   0.061281   0.000000   0.088329
     12       0.000000   0.000000   0.000000   0.000000   0.025664   0.000000
     13      -0.273573   0.163219  -0.004157  -0.088329   0.000000  -0.114912
     14       0.163219   0.160479  -0.000848  -0.018025   0.000000  -0.028688
     15       0.000000  -0.000000   0.000001   0.037948   0.000000   0.047095
     16       0.000000  -0.000000   0.037948   0.367071   0.000000   0.291669
     17       0.000000   0.000000   0.000000   0.000000   0.214903   0.000000
     18       1.000000   0.000000  -0.047095  -0.291669   0.000000  -0.089353
     19       0.000000   1.000000  -0.041717  -0.258363   0.000000  -0.269513
     20      -0.047095  -0.041717   1.000000   0.248362   0.000000  -0.000000
     21      -0.291669  -0.258363   0.248362   1.000000   0.000000  -0.000000
     22       0.000000   0.000000   0.000000   0.000000   1.000000   0.000000
     23      -0.089353  -0.269513  -0.000000  -0.000000   0.000000   1.000000
     24      -0.269513  -0.023834   0.000000  -0.000000   0.000000   0.000000
     25      -0.001344  -0.004024   0.000001   0.037989   0.000000   0.012585
     26      -0.028565  -0.085498   0.037989   0.367296   0.000000   0.077889
     27       0.000000   0.000000   0.000000   0.000000   0.215078   0.000000
     28       0.010958  -0.044008  -0.012585  -0.077889   0.000000   0.193390
     29      -0.044008  -0.106056   0.061711   0.381945   0.000000   0.106348
     30       0.008286  -0.006759   0.000012   0.001847   0.000000   0.003153
     31       0.122535   0.016401   0.000092   0.006447   0.000000   0.009991
     32      -0.119141  -0.032904   0.060887   0.485213   0.000000  -0.440005
     33      -0.004973  -0.009456   0.005291   0.095597   0.000000  -0.031078
     34      -0.008914   0.043687   0.000000   0.001144   0.000000   0.000802
     35      -0.067246   0.329571   0.001144   0.046534   0.000000   0.020449
     36       0.000000   0.000000   0.000000   0.000000   0.018926   0.000000
     37       0.145184   0.093716  -0.000802  -0.020449   0.000000   0.009092
     38       0.093716  -0.294992  -0.002650  -0.067591   0.000000  -0.032504
     39       0.000772   0.002927   0.000000   0.000003   0.000000   0.000006
     40       0.018955   0.071842   0.000003   0.001892   0.000000   0.001666
     41       0.000000   0.000000   0.000000   0.000000   0.000634   0.000000
     42       0.012160  -0.030299  -0.000006  -0.001666   0.000000  -0.000878
     43      -0.030299  -0.094683  -0.000011  -0.003319   0.000000  -0.003012
     44      -0.068398   0.087228   0.001149   0.033093   0.000000  -0.005940
     45       0.000959   0.007955   0.000000   0.000178   0.000000   0.000115
     46       0.025743   0.032867   0.000003   0.000866   0.000000   0.001082
     47       0.000000  -0.000000   0.000000   0.000002   0.000000   0.000004
     48       0.000129  -0.000632   0.000002   0.001528   0.000000   0.001517
     49       0.000000   0.000000   0.000000   0.000000   0.000509   0.000000
     50       0.000037   0.000282  -0.000004  -0.001517   0.000000  -0.001039
     51       0.000282  -0.001287   0.000007   0.002636   0.000000   0.002690
     52      -0.000000  -0.000000   0.000000   0.000000   0.000000   0.000000
     53      -0.000001  -0.000032   0.000000   0.000274   0.000000   0.000133
     54       0.000000   0.000000   0.000000   0.000000   0.000088   0.000000
     55       0.000004  -0.000001  -0.000000  -0.000133   0.000000   0.000022
     56      -0.000001  -0.000078   0.000000   0.000590   0.000000   0.000291
     57       0.000073  -0.000170   0.000000   0.000192   0.000000   0.000254
     58       0.000000  -0.000001   0.000000   0.000012   0.000000   0.000006
     59      -0.000025  -0.000106   0.000007   0.001372   0.000000  -0.000069
                 24         25         26         27         28         29    
      0      -0.003179   0.000001   0.037972   0.000000   0.059710  -0.019947
      1      -0.067527   0.037972   0.367203   0.000000   0.369656  -0.123491
      2       0.000000   0.000000   0.000000   0.215005   0.000000   0.000000
      3       0.072716  -0.059710  -0.369656   0.000000  -0.273573   0.163219
      4      -0.056425   0.019947   0.123491   0.000000   0.163219   0.160479
      5      -0.000355   0.000000   0.001843   0.000000   0.004157   0.000848
      6      -0.013429   0.001843   0.061281   0.000000   0.088329   0.018025
      7       0.000000   0.000000   0.000000   0.025664   0.000000   0.000000
      8       0.022065  -0.004157  -0.088329   0.000000  -0.114912  -0.028688
      9       0.002827  -0.000848  -0.018025   0.000000  -0.028688   0.019810
     10       0.000848   0.000000   0.000422   0.000000   0.000839   0.000743
     11       0.018025   0.000422   0.026380   0.000000   0.031722   0.028093
     12       0.000000   0.000000   0.000000   0.010185   0.000000   0.000000
     13      -0.028688  -0.000839  -0.031722   0.000000  -0.030955  -0.036433
     14       0.019810  -0.000743  -0.028093   0.000000  -0.036433  -0.022079
     15       0.041717   0.000000   0.001843   0.000000   0.001344   0.004024
     16       0.258363   0.001843   0.061276   0.000000   0.028565   0.085498
     17       0.000000   0.000000   0.000000   0.025662   0.000000   0.000000
     18      -0.269513  -0.001344  -0.028565   0.000000   0.010958  -0.044008
     19      -0.023834  -0.004024  -0.085498   0.000000  -0.044008  -0.106056
     20       0.000000   0.000001   0.037989   0.000000  -0.012585   0.061711
     21      -0.000000   0.037989   0.367296   0.000000  -0.077889   0.381945
     22       0.000000   0.000000   0.000000   0.215078   0.000000   0.000000
     23       0.000000   0.012585   0.077889   0.000000   0.193390   0.106348
     24       1.000000  -0.061711  -0.381945   0.000000   0.106348  -0.306418
     25      -0.061711   1.000000   0.248362   0.000000   0.000000  -0.000000
     26      -0.381945   0.248362   1.000000   0.000000  -0.000000   0.000000
     27       0.000000   0.000000   0.000000   1.000000   0.000000   0.000000
     28       0.106348   0.000000  -0.000000   0.000000   1.000000   0.000000
     29      -0.306418  -0.000000   0.000000   0.000000   0.000000   1.000000
     30      -0.001053   0.000092   0.006449   0.000000   0.010683   0.000421
     31       0.003797   0.000012   0.001846   0.000000   0.002486   0.002202
     32       0.147090   0.005292   0.095605   0.000000  -0.075450   0.097921
     33      -0.119638   0.060884   0.485198   0.000000  -0.347255  -0.307646
     34       0.002650   0.000000   0.000002   0.000000   0.000001   0.000008
     35       0.067591   0.000002   0.001527   0.000000   0.000363   0.003017
     36       0.000000   0.000000   0.000000   0.000508   0.000000   0.000000
     37      -0.032504  -0.000001  -0.000363   0.000000   0.000419  -0.000738
     38      -0.088509  -0.000008  -0.003017   0.000000  -0.000738  -0.005619
     39       0.000011   0.000000   0.000000   0.000000   0.000000   0.000000
     40       0.003319   0.000000   0.000032   0.000000   0.000022   0.000075
     41       0.000000   0.000000   0.000000   0.000010   0.000000   0.000000
     42      -0.003012  -0.000000  -0.000022   0.000000  -0.000006  -0.000054
     43      -0.005364  -0.000000  -0.000075   0.000000  -0.000054  -0.000170
     44       0.047784   0.000005   0.001035   0.000000  -0.000289   0.001909
     45       0.000348   0.000000   0.000002   0.000000   0.000001   0.000005
     46       0.001221   0.000000   0.000039   0.000000   0.000043   0.000077
     47      -0.000007   0.000000   0.001145   0.000000   0.001777  -0.002126
     48      -0.002636   0.001145   0.046553   0.000000   0.045307  -0.054200
     49       0.000000   0.000000   0.000000   0.018934   0.000000   0.000000
     50       0.002690  -0.001777  -0.045307   0.000000  -0.029319   0.057725
     51      -0.004164   0.002126   0.054200   0.000000   0.057725  -0.050120
     52      -0.000000   0.000000   0.000206   0.000000   0.000133  -0.000562
     53      -0.000590   0.000206   0.017611   0.000000   0.006756  -0.028538
     54       0.000000   0.000000   0.000000   0.006590   0.000000   0.000000
     55       0.000291  -0.000133  -0.006756   0.000000   0.003819   0.011704
     56      -0.001200   0.000562   0.028538   0.000000   0.011704  -0.042848
     57      -0.000304   0.000069   0.005410   0.000000   0.007040  -0.005732
     58      -0.000027   0.000006   0.001166   0.000000   0.000479  -0.002105
     59      -0.002514   0.001328   0.036482   0.000000  -0.007701  -0.052018
                 30         31         32         33         34         35    
      0       0.005291   0.000092   0.000092   0.005292   0.000000   0.000000
      1       0.095590   0.006444   0.006450   0.095614   0.000000   0.000293
      2       0.000000   0.000000   0.000000   0.000000   0.000000   0.000000
      3       0.119141   0.004973  -0.008286  -0.122535  -0.000000  -0.000129
      4       0.032904   0.009456   0.006759  -0.016401   0.000000   0.000632
      5       0.060887   0.005291   0.000012   0.000092   0.000000   0.000002
      6       0.485213   0.095597   0.001847   0.006447   0.000002   0.001528
      7       0.000000   0.000000   0.000000   0.000000   0.000000   0.000000
      8       0.440005   0.031078  -0.003153  -0.009991  -0.000004  -0.001517
      9      -0.147090   0.119638   0.001053  -0.003797   0.000007   0.002636
     10       0.005292   0.060884   0.000092   0.000012   0.000000   0.001145
     11       0.095605   0.485198   0.006449   0.001846   0.001145   0.046553
     12       0.000000   0.000000   0.000000   0.000000   0.000000   0.000000
     13       0.075450   0.347255  -0.010683  -0.002486  -0.001777  -0.045307
     14      -0.097921   0.307646  -0.000421  -0.002202   0.002126   0.054200
     15       0.000092   0.005292   0.005291   0.000092   0.000000   0.026588
     16       0.006450   0.095614   0.095590   0.006444   0.026588   0.298494
     17       0.000000   0.000000   0.000000   0.000000   0.000000   0.000000
     18       0.008286   0.122535  -0.119141  -0.004973  -0.008914  -0.067246
     19      -0.006759   0.016401  -0.032904  -0.009456   0.043687   0.329571
     20       0.000012   0.000092   0.060887   0.005291   0.000000   0.001144
     21       0.001847   0.006447   0.485213   0.095597   0.001144   0.046534
     22       0.000000   0.000000   0.000000   0.000000   0.000000   0.000000
     23       0.003153   0.009991  -0.440005  -0.031078   0.000802   0.020449
     24      -0.001053   0.003797   0.147090  -0.119638   0.002650   0.067591
     25       0.000092   0.000012   0.005292   0.060884   0.000000   0.000002
     26       0.006449   0.001846   0.095605   0.485198   0.000002   0.001527
     27       0.000000   0.000000   0.000000   0.000000   0.000000   0.000000
     28       0.010683   0.002486  -0.075450  -0.347255   0.000001   0.000363
     29       0.000421   0.002202   0.097921  -0.307646   0.000008   0.003017
     30       1.000000   0.050007   0.000112   0.000762   0.000000   0.000158
     31       0.050007   1.000000   0.000762   0.000111   0.001017   0.030489
     32       0.000112   0.000762   1.000000   0.050007   0.001017   0.030486
     33       0.000762   0.000111   0.050007   1.000000   0.000000   0.000158
     34       0.000000   0.001017   0.001017   0.000000   1.000000   0.248362
     35       0.000158   0.030489   0.030486   0.000158   0.248362   1.000000
     36       0.000000   0.000000   0.000000   0.000000   0.000000   0.000000
     37       0.000206   0.040022  -0.029015  -0.000089   0.000000   0.000000
     38      -0.000256  -0.019926  -0.034007  -0.000316  -0.000000  -0.000000
     39       0.000000   0.001481   0.000005   0.000000   0.000003   0.044724
     40       0.000057   0.039274   0.001132   0.000002   0.044724   0.402773
     41       0.000000   0.000000   0.000000   0.000000   0.000000   0.000000
     42       0.000050   0.032246  -0.001411  -0.000002  -0.053174  -0.296818
     43      -0.000115  -0.046026  -0.001556  -0.000005  -0.051762  -0.288936
     44       0.000015   0.002796   0.055469   0.000207   0.061086   0.486010
     45       0.000003   0.004166   0.000199   0.000000   0.005781   0.101894
     46       0.000546   0.129838   0.000265   0.000002   0.005781   0.101891
     47       0.001017   0.000000   0.000000   0.001017   0.000000   0.000000
     48       0.030486   0.000158   0.000158   0.030489   0.000000   0.000001
     49       0.000000   0.000000   0.000000   0.000000   0.000000   0.000000
     50       0.029015   0.000089  -0.000206  -0.040022  -0.000000  -0.000000
     51       0.034007   0.000316   0.000256   0.019926   0.000000   0.000002
     52       0.000005   0.000000   0.000000   0.001481   0.000000   0.000000
     53       0.001132   0.000002   0.000057   0.039274   0.000000   0.000000
     54       0.000000   0.000000   0.000000   0.000000   0.000000   0.000000
     55       0.001411   0.000002  -0.000050  -0.032246   0.000000  -0.000000
     56       0.001556   0.000005   0.000115   0.046026   0.000000   0.000000
     57       0.055469   0.000207   0.000015   0.002796   0.000000   0.000000
     58       0.000199   0.000000   0.000003   0.004166   0.000000   0.000000
     59       0.000265   0.000002   0.000546   0.129838   0.000000   0.000000
                 36         37         38         39         40         41    
      0       0.000000   0.000000  -0.000000   0.000000   0.000000   0.000000
      1       0.000000   0.000129  -0.000632   0.000000   0.000012   0.000000
      2       0.000094   0.000000   0.000000   0.000000   0.000000   0.000004
      3       0.000000   0.000037   0.000282   0.000000   0.000001   0.000000
      4       0.000000   0.000282  -0.001287   0.000000   0.000032   0.000000
      5       0.000000   0.000004  -0.000007   0.000000   0.000000   0.000000
      6       0.000000   0.001517  -0.002636   0.000000   0.000274   0.000000
      7       0.000509   0.000000   0.000000   0.000000   0.000000   0.000088
      8       0.000000  -0.001039   0.002690  -0.000000  -0.000133   0.000000
      9       0.000000   0.002690  -0.004164   0.000000   0.000590   0.000000
     10       0.000000   0.001777  -0.002126   0.000000   0.000206   0.000000
     11       0.000000   0.045307  -0.054200   0.000206   0.017611   0.000000
     12       0.018934   0.000000   0.000000   0.000000   0.000000   0.006590
     13       0.000000  -0.029319   0.057725  -0.000133  -0.006756   0.000000
     14       0.000000   0.057725  -0.050120   0.000562   0.028538   0.000000
     15       0.000000   0.008914  -0.043687   0.000000   0.001263   0.000000
     16       0.000000   0.067246  -0.329571   0.001263   0.049268   0.000000
     17       0.164306   0.000000   0.000000   0.000000   0.000000   0.020155
     18       0.000000   0.145184   0.093716   0.000772   0.018955   0.000000
     19       0.000000   0.093716  -0.294992   0.002927   0.071842   0.000000
     20       0.000000  -0.000802  -0.002650   0.000000   0.000003   0.000000
     21       0.000000  -0.020449  -0.067591   0.000003   0.001892   0.000000
     22       0.018926   0.000000   0.000000   0.000000   0.000000   0.000634
     23       0.000000   0.009092  -0.032504   0.000006   0.001666   0.000000
     24       0.000000  -0.032504  -0.088509   0.000011   0.003319   0.000000
     25       0.000000  -0.000001  -0.000008   0.000000   0.000000   0.000000
     26       0.000000  -0.000363  -0.003017   0.000000   0.000032   0.000000
     27       0.000508   0.000000   0.000000   0.000000   0.000000   0.000010
     28       0.000000   0.000419  -0.000738   0.000000   0.000022   0.000000
     29       0.000000  -0.000738  -0.005619   0.000000   0.000075   0.000000
     30       0.000000   0.000206  -0.000256   0.000000   0.000057   0.000000
     31       0.000000   0.040022  -0.019926   0.001481   0.039274   0.000000
     32       0.000000  -0.029015  -0.034007   0.000005   0.001132   0.000000
     33       0.000000  -0.000089  -0.000316   0.000000   0.000002   0.000000
     34       0.000000   0.000000  -0.000000   0.000003   0.044724   0.000000
     35       0.000000   0.000000  -0.000000   0.044724   0.402773   0.000000
     36       1.000000   0.000000   0.000000   0.000000   0.000000   0.243271
     37       0.000000   1.000000  -0.000000   0.053174   0.296818   0.000000
     38       0.000000  -0.000000   1.000000   0.051762   0.288936   0.000000
     39       0.000000   0.053174   0.051762   1.000000   0.248362   0.000000
     40       0.000000   0.296818   0.288936   0.248362   1.000000   0.000000
     41       0.243271   0.000000   0.000000   0.000000   0.000000   1.000000
     42       0.000000  -0.049834  -0.285322  -0.000000  -0.000000   0.000000
     43       0.000000  -0.285322  -0.034474  -0.000000  -0.000000   0.000000
     44       0.000000  -0.452423   0.104890   0.005781   0.101891   0.000000
     45       0.000000   0.044829   0.122733   0.061085   0.486008   0.000000
     46       0.000000   0.123890   0.041511   0.061086   0.486010   0.000000
     47       0.000000   0.000000  -0.000000   0.000000   0.000000   0.000000
     48       0.000000   0.000000  -0.000002   0.000000   0.000000   0.000000
     49       0.000000   0.000000   0.000000   0.000000   0.000000   0.000000
     50       0.000000  -0.000000   0.000001   0.000000  -0.000000   0.000000
     51       0.000000   0.000001  -0.000004   0.000000   0.000000   0.000000
     52       0.000000   0.000000   0.000000   0.000000   0.000000   0.000000
     53       0.000000   0.000000  -0.000000   0.000000   0.000000   0.000000
     54       0.000000   0.000000   0.000000   0.000000   0.000000   0.000000
     55       0.000000   0.000000   0.000000   0.000000   0.000000   0.000000
     56       0.000000   0.000000  -0.000000   0.000000   0.000000   0.000000
     57       0.000000   0.000000  -0.000001   0.000000   0.000000   0.000000
     58       0.000000   0.000000  -0.000000   0.000000   0.000000   0.000000
     59       0.000000  -0.000000  -0.000000   0.000000   0.000000   0.000000
                 42         43         44         45         46         47    
      0      -0.000000  -0.000000   0.000000   0.000000   0.000000   0.000000
      1      -0.000001  -0.000032   0.000086   0.000000   0.000049   0.026588
      2       0.000000   0.000000   0.000000   0.000000   0.000000   0.000000
      3       0.000004  -0.000001  -0.000073  -0.000000   0.000025   0.008914
      4      -0.000001  -0.000078   0.000170   0.000001   0.000106  -0.043687
      5       0.000000  -0.000000   0.000000   0.000000   0.000007   0.000000
      6       0.000133  -0.000590   0.000192   0.000012   0.001372   0.001144
      7       0.000000   0.000000   0.000000   0.000000   0.000000   0.000000
      8       0.000022   0.000291  -0.000254  -0.000006   0.000069  -0.000802
      9       0.000291  -0.001200   0.000304   0.000027   0.002514  -0.002650
     10       0.000133  -0.000562   0.000069   0.000006   0.001328   0.000000
     11       0.006756  -0.028538   0.005410   0.001166   0.036482   0.000002
     12       0.000000   0.000000   0.000000   0.000000   0.000000   0.000000
     13       0.003819   0.011704  -0.007040  -0.000479   0.007701  -0.000001
     14       0.011704  -0.042848   0.005732   0.002105   0.052018  -0.000008
     15      -0.000772  -0.002927   0.004445   0.000056   0.000909   0.000000
     16      -0.018955  -0.071842   0.084383   0.004732   0.028273   0.000000
     17       0.000000   0.000000   0.000000   0.000000   0.000000   0.000000
     18       0.012160  -0.030299  -0.068398   0.000959   0.025743   0.000000
     19      -0.030299  -0.094683   0.087228   0.007955   0.032867  -0.000000
     20      -0.000006  -0.000011   0.001149   0.000000   0.000003   0.000000
     21      -0.001666  -0.003319   0.033093   0.000178   0.000866   0.000002
     22       0.000000   0.000000   0.000000   0.000000   0.000000   0.000000
     23      -0.000878  -0.003012  -0.005940   0.000115   0.001082   0.000004
     24      -0.003012  -0.005364   0.047784   0.000348   0.001221  -0.000007
     25      -0.000000  -0.000000   0.000005   0.000000   0.000000   0.000000
     26      -0.000022  -0.000075   0.001035   0.000002   0.000039   0.001145
     27       0.000000   0.000000   0.000000   0.000000   0.000000   0.000000
     28      -0.000006  -0.000054  -0.000289   0.000001   0.000043   0.001777
     29      -0.000054  -0.000170   0.001909   0.000005   0.000077  -0.002126
     30       0.000050  -0.000115   0.000015   0.000003   0.000546   0.001017
     31       0.032246  -0.046026   0.002796   0.004166   0.129838   0.000000
     32      -0.001411  -0.001556   0.055469   0.000199   0.000265   0.000000
     33      -0.000002  -0.000005   0.000207   0.000000   0.000002   0.001017
     34      -0.053174  -0.051762   0.061086   0.005781   0.005781   0.000000
     35      -0.296818  -0.288936   0.486010   0.101894   0.101891   0.000000
     36       0.000000   0.000000   0.000000   0.000000   0.000000   0.000000
     37      -0.049834  -0.285322  -0.452423   0.044829   0.123890   0.000000
     38      -0.285322  -0.034474   0.104890   0.122733   0.041511  -0.000000
     39      -0.000000  -0.000000   0.005781   0.061085   0.061086   0.000000
     40      -0.000000  -0.000000   0.101891   0.486008   0.486010   0.000000
     41       0.000000   0.000000   0.000000   0.000000   0.000000   0.000000
     42       1.000000   0.000000  -0.123890  -0.092695   0.452423   0.000000
     43       0.000000   1.000000  -0.041511   0.455077  -0.104890   0.000000
     44      -0.123890  -0.041511   1.000000   0.048313   0.014144   0.000000
     45      -0.092695   0.455077   0.048313   1.000000   0.152207   0.000000
     46       0.452423  -0.104890   0.014144   0.152207   1.000000   0.000000
     47       0.000000   0.000000   0.000000   0.000000   0.000000   1.000000
     48       0.000000  -0.000000   0.000000   0.000000   0.000000   0.248362
     49       0.000000   0.000000   0.000000   0.000000   0.000000   0.000000
     50       0.000000   0.000000  -0.000000  -0.000000   0.000000  -0.000000
     51       0.000000  -0.000000   0.000001   0.000000   0.000000   0.000000
     52       0.000000   0.000000   0.000000   0.000000   0.000000   0.000003
     53      -0.000000  -0.000000   0.000000   0.000000   0.000000   0.044724
     54       0.000000   0.000000   0.000000   0.000000   0.000000   0.000000
     55       0.000000  -0.000000  -0.000000   0.000000   0.000000   0.053174
     56      -0.000000  -0.000000   0.000000   0.000000   0.000000   0.051762
     57       0.000000  -0.000000   0.000000   0.000000   0.000000   0.061086
     58      -0.000000  -0.000000   0.000000   0.000000   0.000000   0.005781
     59      -0.000000  -0.000000   0.000000   0.000000   0.000000   0.005781
                 48         49         50         51         52         53    
      0       0.026588   0.000000  -0.008914   0.043687   0.000000   0.001263
      1       0.298494   0.000000  -0.067246   0.329571   0.001263   0.049268
      2       0.000000   0.164306   0.000000   0.000000   0.000000   0.000000
      3       0.067246   0.000000   0.145184   0.093716  -0.000772  -0.018955
      4      -0.329571   0.000000   0.093716  -0.294992  -0.002927  -0.071842
      5       0.001144   0.000000   0.000802   0.002650   0.000000   0.000003
      6       0.046534   0.000000   0.020449   0.067591   0.000003   0.001892
      7       0.000000   0.018926   0.000000   0.000000   0.000000   0.000000
      8      -0.020449   0.000000   0.009092  -0.032504  -0.000006  -0.001666
      9      -0.067591   0.000000  -0.032504  -0.088509  -0.000011  -0.003319
     10       0.000002   0.000000   0.000001   0.000008   0.000000   0.000000
     11       0.001527   0.000000   0.000363   0.003017   0.000000   0.000032
     12       0.000000   0.000508   0.000000   0.000000   0.000000   0.000000
     13      -0.000363   0.000000   0.000419  -0.000738  -0.000000  -0.000022
     14      -0.003017   0.000000  -0.000738  -0.005619  -0.000000  -0.000075
     15       0.000000   0.000000  -0.000000   0.000000   0.000000   0.000000
     16       0.000293   0.000000  -0.000129   0.000632   0.000000   0.000012
     17       0.000000   0.000094   0.000000   0.000000   0.000000   0.000000
     18       0.000129   0.000000   0.000037   0.000282  -0.000000  -0.000001
     19      -0.000632   0.000000   0.000282  -0.001287  -0.000000  -0.000032
     20       0.000002   0.000000  -0.000004   0.000007   0.000000   0.000000
     21       0.001528   0.000000  -0.001517   0.002636   0.000000   0.000274
     22       0.000000   0.000509   0.000000   0.000000   0.000000   0.000000
     23       0.001517   0.000000  -0.001039   0.002690   0.000000   0.000133
     24      -0.002636   0.000000   0.002690  -0.004164  -0.000000  -0.000590
     25       0.001145   0.000000  -0.001777   0.002126   0.000000   0.000206
     26       0.046553   0.000000  -0.045307   0.054200   0.000206   0.017611
     27       0.000000   0.018934   0.000000   0.000000   0.000000   0.000000
     28       0.045307   0.000000  -0.029319   0.057725   0.000133   0.006756
     29      -0.054200   0.000000   0.057725  -0.050120  -0.000562  -0.028538
     30       0.030486   0.000000   0.029015   0.034007   0.000005   0.001132
     31       0.000158   0.000000   0.000089   0.000316   0.000000   0.000002
     32       0.000158   0.000000  -0.000206   0.000256   0.000000   0.000057
     33       0.030489   0.000000  -0.040022   0.019926   0.001481   0.039274
     34       0.000000   0.000000  -0.000000   0.000000   0.000000   0.000000
     35       0.000001   0.000000  -0.000000   0.000002   0.000000   0.000000
     36       0.000000   0.000000   0.000000   0.000000   0.000000   0.000000
     37       0.000000   0.000000  -0.000000   0.000001   0.000000   0.000000
     38      -0.000002   0.000000   0.000001  -0.000004   0.000000  -0.000000
     39       0.000000   0.000000   0.000000   0.000000   0.000000   0.000000
     40       0.000000   0.000000  -0.000000   0.000000   0.000000   0.000000
     41       0.000000   0.000000   0.000000   0.000000   0.000000   0.000000
     42       0.000000   0.000000   0.000000   0.000000   0.000000  -0.000000
     43      -0.000000   0.000000   0.000000  -0.000000   0.000000  -0.000000
     44       0.000000   0.000000  -0.000000   0.000001   0.000000   0.000000
     45       0.000000   0.000000  -0.000000   0.000000   0.000000   0.000000
     46       0.000000   0.000000   0.000000   0.000000   0.000000   0.000000
     47       0.248362   0.000000  -0.000000   0.000000   0.000003   0.044724
     48       1.000000   0.000000  -0.000000   0.000000   0.044724   0.402773
     49       0.000000   1.000000   0.000000   0.000000   0.000000   0.000000
     50      -0.000000   0.000000   1.000000  -0.000000  -0.053174  -0.296818
     51       0.000000   0.000000  -0.000000   1.000000  -0.051762  -0.288936
     52       0.044724   0.000000  -0.053174  -0.051762   1.000000   0.248362
     53       0.402773   0.000000  -0.296818  -0.288936   0.248362   1.000000
     54       0.000000   0.243271   0.000000   0.000000   0.000000   0.000000
     55       0.296818   0.000000  -0.049834  -0.285322   0.000000   0.000000
     56       0.288936   0.000000  -0.285322  -0.034474   0.000000   0.000000
     57       0.486010   0.000000   0.452423  -0.104890   0.005781   0.101891
     58       0.101894   0.000000  -0.044829  -0.122733   0.061085   0.486008
     59       0.101891   0.000000  -0.123890  -0.041511   0.061086   0.486010
                 54         55         56         57         58         59    
      0       0.000000   0.000772   0.002927   0.004445   0.000056   0.000909
      1       0.000000   0.018955   0.071842   0.084383   0.004732   0.028273
      2       0.020155   0.000000   0.000000   0.000000   0.000000   0.000000
      3       0.000000   0.012160  -0.030299   0.068398  -0.000959  -0.025743
      4       0.000000  -0.030299  -0.094683  -0.087228  -0.007955  -0.032867
      5       0.000000   0.000006   0.000011   0.001149   0.000000   0.000003
      6       0.000000   0.001666   0.003319   0.033093   0.000178   0.000866
      7       0.000634   0.000000   0.000000   0.000000   0.000000   0.000000
      8       0.000000  -0.000878  -0.003012   0.005940  -0.000115  -0.001082
      9       0.000000  -0.003012  -0.005364  -0.047784  -0.000348  -0.001221
     10       0.000000   0.000000   0.000000   0.000005   0.000000   0.000000
     11       0.000000   0.000022   0.000075   0.001035   0.000002   0.000039
     12       0.000010   0.000000   0.000000   0.000000   0.000000   0.000000
     13       0.000000  -0.000006  -0.000054   0.000289  -0.000001  -0.000043
     14       0.000000  -0.000054  -0.000170  -0.001909  -0.000005  -0.000077
     15       0.000000   0.000000   0.000000   0.000000   0.000000   0.000000
     16       0.000000   0.000001   0.000032   0.000086   0.000000   0.000049
     17       0.000004   0.000000   0.000000   0.000000   0.000000   0.000000
     18       0.000000   0.000004  -0.000001   0.000073   0.000000  -0.000025
     19       0.000000  -0.000001  -0.000078  -0.000170  -0.000001  -0.000106
     20       0.000000  -0.000000   0.000000   0.000000   0.000000   0.000007
     21       0.000000  -0.000133   0.000590   0.000192   0.000012   0.001372
     22       0.000088   0.000000   0.000000   0.000000   0.000000   0.000000
     23       0.000000   0.000022   0.000291   0.000254   0.000006  -0.000069
     24       0.000000   0.000291  -0.001200  -0.000304  -0.000027  -0.002514
     25       0.000000  -0.000133   0.000562   0.000069   0.000006   0.001328
     26       0.000000  -0.006756   0.028538   0.005410   0.001166   0.036482
     27       0.006590   0.000000   0.000000   0.000000   0.000000   0.000000
     28       0.000000   0.003819   0.011704   0.007040   0.000479  -0.007701
     29       0.000000   0.011704  -0.042848  -0.005732  -0.002105  -0.052018
     30       0.000000   0.001411   0.001556   0.055469   0.000199   0.000265
     31       0.000000   0.000002   0.000005   0.000207   0.000000   0.000002
     32       0.000000  -0.000050   0.000115   0.000015   0.000003   0.000546
     33       0.000000  -0.032246   0.046026   0.002796   0.004166   0.129838
     34       0.000000   0.000000   0.000000   0.000000   0.000000   0.000000
     35       0.000000  -0.000000   0.000000   0.000000   0.000000   0.000000
     36       0.000000   0.000000   0.000000   0.000000   0.000000   0.000000
     37       0.000000   0.000000   0.000000   0.000000   0.000000  -0.000000
     38       0.000000   0.000000  -0.000000  -0.000001  -0.000000  -0.000000
     39       0.000000   0.000000   0.000000   0.000000   0.000000   0.000000
     40       0.000000   0.000000   0.000000   0.000000   0.000000   0.000000
     41       0.000000   0.000000   0.000000   0.000000   0.000000   0.000000
     42       0.000000   0.000000  -0.000000   0.000000  -0.000000  -0.000000
     43       0.000000  -0.000000  -0.000000  -0.000000  -0.000000  -0.000000
     44       0.000000  -0.000000   0.000000   0.000000   0.000000   0.000000
     45       0.000000   0.000000   0.000000   0.000000   0.000000   0.000000
     46       0.000000   0.000000   0.000000   0.000000   0.000000   0.000000
     47       0.000000   0.053174   0.051762   0.061086   0.005781   0.005781
     48       0.000000   0.296818   0.288936   0.486010   0.101894   0.101891
     49       0.243271   0.000000   0.000000   0.000000   0.000000   0.000000
     50       0.000000  -0.049834  -0.285322   0.452423  -0.044829  -0.123890
     51       0.000000  -0.285322  -0.034474  -0.104890  -0.122733  -0.041511
     52       0.000000   0.000000   0.000000   0.005781   0.061085   0.061086
     53       0.000000   0.000000   0.000000   0.101891   0.486008   0.486010
     54       1.000000   0.000000   0.000000   0.000000   0.000000   0.000000
     55       0.000000   1.000000   0.000000   0.123890   0.092695  -0.452423
     56       0.000000   0.000000   1.000000   0.041511  -0.455077   0.104890
     57       0.000000   0.123890   0.041511   1.000000   0.048313   0.014144
     58       0.000000   0.092695  -0.455077   0.048313   1.000000   0.152207
     59       0.000000  -0.452423   0.104890   0.014144   0.152207   1.000000
Time for model grid setup =    0.167 sec

------------------------------
INITIAL GUESS: MODEL POTENTIAL
------------------------------
Loading Hartree-Fock densities                     ... done
Calculating cut-offs                               ... done
Initializing the effective Hamiltonian             ... done
Setting up the integral package (SHARK)            ... done
Starting the Coulomb interaction                   ...     -> Generating integrals - 
    -> L=0 0 :     0.020 sec done=     65020 skipped=      1420 prim-skipped=         0
    -> L=1 0 :     0.022 sec done=     46720 skipped=       280 prim-skipped=         0
    -> L=1 1 :     0.007 sec done=      8790 skipped=        10 prim-skipped=         0
done (   0.1 sec)
Reading the grid                                   ... done
Mapping shells                                     ... done
Starting the XC term evaluation                    ... done (   0.1 sec)
  promolecular density results
     # of electrons  =     69.998129236
     EX              =    -54.298727157
     EC              =     -2.491513098
     EX+EC           =    -56.790240254
Transforming the Hamiltonian                       ... done (   0.0 sec)
Diagonalizing the Hamiltonian                      ... done (   0.0 sec)
Back transforming the eigenvectors                 ... done (   0.0 sec)
Now organizing SCF variables                       ... done
                      ------------------
                      INITIAL GUESS DONE (   0.3 sec)
                      ------------------
-------------------
DFT GRID GENERATION
-------------------

General Integration Accuracy     IntAcc      ... 4.388
Radial Grid Type                 RadialGrid  ... OptM3 with GC (2021)
Angular Grid (max. ang.)         AngularGrid ... 4 (Lebedev-302)
Angular grid pruning method      GridPruning ... 4 (adaptive)
Weight generation scheme         WeightScheme... Becke
Basis function cutoff            BFCut       ... 1.0000e-12
Integration weight cutoff        WCut        ... 1.0000e-14
Angular grids for H and He will be reduced by one unit
Partially contracted basis set               ... off
Rotationally invariant grid construction     ... off

Total number of grid points                  ...    92240
Total number of batches                      ...     1450
Average number of points per batch           ...       63
Average number of grid points per atom       ...     4612
Time for grid setup =    0.664 sec

--------------
SCF ITERATIONS
--------------
               ***  Starting incremental Fock matrix formation  ***
==>> SHARK/Split-J: NDens=1 Thresh =     1.000000e-12 TCut=    1.000000e-14 
    -> Finding PMAX - ok PMAX= 2.071e+00
    -> (1) L=0 0 0 0:     0.056 sec done=     69940 skipped=     11321 prim-skipped=         0
    -> (1) L=1 0 0 0:     0.149 sec done=    105212 skipped=     12078 prim-skipped=         0
    -> (1) L=1 0 1 0:     0.095 sec done=     39111 skipped=      3254 prim-skipped=         0
    -> (1) L=1 1 0 0:     0.048 sec done=     21262 skipped=      1221 prim-skipped=         0
    -> (1) L=1 1 1 0:     0.077 sec done=     15472 skipped=       542 prim-skipped=         0
    ->Total Fock matrix time from conventional part =    0.433 sec
    -> SHARK-Split-J: NDens=1 Thresh =     1.000000e-12 TCut=    1.000000e-14 
    -> Finding PMAX - ok PMAX= 2.071e+00
    -> Making Hermite density - ok     0.002 sec
    -> Making Hermite Coulomb matrix - 
    -> (2) L=1 1 1 1:     0.038 sec done=      1512 skipped=        21 prim-skipped=     14458
    -> done with Hermite Coulomb matrix (    0.038 sec)
    -> Making contracted Gaussian Coulomb matrix - ok (    0.001 sec)
    ->Total Fock matrix time from Split-J part =    0.050 sec

                         ----------------------------
                         !        ITERATION     0   !
                         ----------------------------
   Total Energy        :    -382.260285914819 Eh
   Energy Change       :    -382.260285914819 Eh
   MAX-DP              :       0.049286528153
   RMS-DP              :       0.003694011524
   Actual Damping      :       0.7000
   Actual Level Shift  :       0.2500 Eh
   Int. Num. El.       :    69.99989184 (UP=   34.99994592 DN=   34.99994592)
   Exchange            :   -55.47322201
   Correlation         :    -2.56894929

==>> SHARK/Split-J: NDens=1 Thresh =     1.000000e-12 TCut=    1.000000e-14 
    -> Finding PMAX - ok PMAX= 4.929e-02
[...]
11 C  pz              0.0      21.4       9.6       1.2       0.0       0.0
11 C  px              0.0       0.0       0.0       0.0       0.3       4.2
11 C  py              0.0       0.0       0.0       0.0       1.0       1.9
12 H  s               0.0       0.0       0.0       0.0       0.3       4.2
13 H  s               0.0       0.0       0.0       0.0       4.6       3.6
14 H  s               0.0       0.0       0.0       0.0       0.4       5.9
15 C  s               0.0       0.0       0.0       0.0       2.7       0.4
15 C  pz              0.0      21.5      18.3       4.1       0.0       0.0
15 C  px              0.0       0.0       0.0       0.0       1.6       3.4
15 C  py              0.0       0.0       0.0       0.0       7.3       5.8
16 C  s               0.0       0.0       0.0       0.0       1.0       0.0
16 C  pz              0.0      21.4       9.6       1.2       0.0       0.0
16 C  px              0.0       0.0       0.0       0.0       0.3       4.2
16 C  py              0.0       0.0       0.0       0.0       1.0       1.9
17 H  s               0.0       0.0       0.0       0.0       0.3       4.2
18 H  s               0.0       0.0       0.0       0.0       4.6       3.6
19 H  s               0.0       0.0       0.0       0.0       0.4       5.9

                     42        43        44        45        46        47   
                   0.31642   0.32191   0.36179   0.36478   0.37072   0.39255
                   0.00000   0.00000   0.00000   0.00000   0.00000   0.00000
                  --------  --------  --------  --------  --------  --------
 0 C  s               1.2       1.0       3.0       1.3       1.1       9.7
 0 C  px              0.3       0.0       0.4       1.4       1.1       0.1
 0 C  py              8.1       0.0       0.2       1.5       0.6       0.1
 1 C  s               0.2       1.2       3.0       4.5       3.7       7.1
 1 C  px              1.1       0.0       0.8       0.1       5.7       0.5
 1 C  py              2.2       0.8       0.1       0.5       2.2       2.0
 2 C  s               0.1       1.7       6.4       5.8       0.2       2.0
 2 C  px              2.8       1.1       0.0       0.0       2.3       1.1
 2 C  py              4.9       1.6       0.5       0.0       0.2       2.1
 3 C  s               1.2       1.0       3.0       1.3       1.1       9.7
 3 C  px              0.3       0.0       0.4       1.4       1.1       0.1
 3 C  py              8.1       0.0       0.2       1.5       0.6       0.1
 4 C  s               0.2       1.2       3.0       4.5       3.7       7.1
 4 C  px              1.1       0.0       0.8       0.1       5.7       0.5
 4 C  py              2.2       0.8       0.1       0.5       2.2       2.0
 5 C  s               0.1       1.7       6.4       5.8       0.2       2.0
 5 C  px              2.8       1.1       0.0       0.0       2.3       1.1
 5 C  py              4.9       1.6       0.5       0.0       0.2       2.1
 6 H  s               0.5       1.3       3.3       2.0      15.2       5.6
 7 H  s               8.4       3.9       3.0       1.0       0.2       1.2
 8 H  s               0.5       1.3       3.3       2.0      15.2       5.6
 9 H  s               8.4       3.9       3.0       1.0       0.2       1.2
10 C  s               7.6       2.3       3.2       2.4       2.8       6.9
10 C  px              0.1       3.5       2.3       2.0       1.5       0.9
10 C  py              3.8       0.8       0.6       1.2       0.0       0.3
11 C  s               2.1       1.4       6.1       8.6       0.1       2.6
11 C  px              0.2       5.0       1.4       1.1       0.4       0.0
11 C  py              0.1       2.8       1.6       1.3       3.3       0.1
12 H  s               3.3      10.1       4.6       4.2       5.0       5.1
13 H  s               2.0       1.7       5.5       6.4       3.6       1.7
14 H  s               0.9       9.8       3.7       4.8       0.9       0.9
15 C  s               7.6       2.3       3.2       2.4       2.8       6.9
15 C  px              0.1       3.5       2.3       2.0       1.5       0.9
15 C  py              3.8       0.8       0.6       1.2       0.0       0.3
16 C  s               2.1       1.4       6.1       8.6       0.1       2.6
16 C  px              0.2       5.0       1.4       1.1       0.4       0.0
16 C  py              0.1       2.8       1.6       1.3       3.3       0.1
17 H  s               3.3      10.1       4.6       4.2       5.0       5.1
18 H  s               2.0       1.7       5.5       6.4       3.6       1.7
19 H  s               0.9       9.8       3.7       4.8       0.9       0.9

                     48        49        50        51        52        53   
                   0.41567   0.44112   0.48253   0.51382   0.52963   0.55150
                   0.00000   0.00000   0.00000   0.00000   0.00000   0.00000
                  --------  --------  --------  --------  --------  --------
 0 C  s               2.1       0.2       8.2       0.0       0.0       6.0
 0 C  px              0.8       3.8       0.6       9.0       1.2       2.8
 0 C  py              0.7       0.0      10.8       0.2       0.2       0.0
 1 C  s               1.8       9.2       0.7       9.4       0.5       0.4
 1 C  px              0.6       0.0       6.2       0.0      12.2       1.7
 1 C  py              1.4       0.9       1.2       0.0       2.3      17.9
 2 C  s               2.5      10.4       2.2       0.4       0.3       6.9
 2 C  px              1.1       0.3       5.4       2.9       6.1       4.1
 2 C  py              1.6       0.8       0.0       7.1       8.0       3.9
 3 C  s               2.1       0.2       8.2       0.0       0.0       6.0
 3 C  px              0.8       3.8       0.6       9.0       1.2       2.8
 3 C  py              0.7       0.0      10.8       0.2       0.2       0.0
 4 C  s               1.8       9.2       0.7       9.4       0.5       0.4
 4 C  px              0.6       0.0       6.2       0.0      12.2       1.7
 4 C  py              1.4       0.9       1.2       0.0       2.3      17.9
 5 C  s               2.5      10.4       2.2       0.4       0.3       6.9
 5 C  px              1.1       0.3       5.4       2.9       6.1       4.1
 5 C  py              1.6       0.8       0.0       7.1       8.0       3.9
 6 H  s               0.2       1.8       1.2       1.9       6.6       0.1
 7 H  s               8.3       3.9       0.4       0.2       6.8       1.8
 8 H  s               0.2       1.8       1.2       1.9       6.6       0.1
 9 H  s               8.3       3.9       0.4       0.2       6.8       1.8
10 C  s               2.4       0.4       3.1       0.1       1.3       1.7
10 C  px              0.2       0.0       0.8       3.7       0.1       0.1
10 C  py              0.8       0.4       0.1       0.1       1.0       0.2
11 C  s              10.4       3.9       0.3       0.2       1.3       0.0
11 C  px              0.5       0.6       2.9       0.5       0.3       0.3
11 C  py              0.3       4.1       1.1       7.2       1.1       1.2
12 H  s               2.3       0.0       2.0       2.1       0.2       0.2
13 H  s               4.6       6.5       1.9       3.8       0.0       0.6
14 H  s               7.5       2.8       1.1       1.3       0.4       0.3
15 C  s               2.4       0.4       3.1       0.1       1.3       1.7
15 C  px              0.2       0.0       0.8       3.7       0.1       0.1
15 C  py              0.8       0.4       0.1       0.1       1.0       0.2
16 C  s              10.4       3.9       0.3       0.2       1.3       0.0
16 C  px              0.5       0.6       2.9       0.5       0.3       0.3
16 C  py              0.3       4.1       1.1       7.2       1.1       1.2
17 H  s               2.3       0.0       2.0       2.1       0.2       0.2
18 H  s               4.6       6.5       1.9       3.8       0.0       0.6
19 H  s               7.5       2.8       1.1       1.3       0.4       0.3

                     54        55        56        57        58        59   
                   0.56744   0.58564   0.63203   0.68100   0.74146   0.75012
                   0.00000   0.00000   0.00000   0.00000   0.00000   0.00000
                  --------  --------  --------  --------  --------  --------
 0 C  s               4.5       0.0       0.0       0.0       0.0       3.0
 0 C  px              3.0       0.7       1.4       5.8      14.4       0.5
 0 C  py              0.3       6.6       1.6       0.3       0.4      10.7
 1 C  s               0.3       0.3       0.3       1.7       0.1       2.8
 1 C  px              0.6       1.4       0.1       0.5       1.9       9.8
 1 C  py              0.1       1.1       7.0       0.5       8.1       1.1
 2 C  s               2.9       0.4       0.3       0.7       0.1       2.8
 2 C  px              2.2       2.8       0.2       0.5       6.2       6.6
 2 C  py              1.1       0.1       7.0       0.9       4.3       4.9
 3 C  s               4.5       0.0       0.0       0.0       0.0       3.0
 3 C  px              3.0       0.7       1.4       5.8      14.4       0.5
 3 C  py              0.3       6.6       1.6       0.3       0.4      10.7
 4 C  s               0.3       0.3       0.3       1.7       0.1       2.8
 4 C  px              0.6       1.4       0.1       0.5       1.9       9.8
 4 C  py              0.1       1.1       7.0       0.5       8.1       1.1
 5 C  s               2.9       0.4       0.3       0.7       0.1       2.8
 5 C  px              2.2       2.8       0.2       0.5       6.2       6.6
 5 C  py              1.1       0.1       7.0       0.9       4.3       4.9
 6 H  s               0.4       0.7       0.0       0.0       0.0       1.9
 7 H  s               0.5       1.5       0.8       0.1       0.0       2.3
 8 H  s               0.4       0.7       0.0       0.0       0.0       1.9
 9 H  s               0.5       1.5       0.8       0.1       0.0       2.3
10 C  s               1.9       0.3       3.5       3.8       0.9       0.2
10 C  px              1.5       6.7       3.7      11.7       5.2       0.0
10 C  py              8.1       4.8       7.8       4.3       1.6       2.0
11 C  s               0.4       0.3       3.2       4.7       1.6       0.0
11 C  px             11.2       4.1       8.2       4.9       1.7       0.7
11 C  py              0.8       6.3       3.9       7.8       2.5       0.0
12 H  s               3.1       3.6       0.0       1.2       0.8       0.0
13 H  s               1.9       3.2       0.1       0.5       0.1       0.0
14 H  s               5.2       5.0       0.9       0.0       0.0       0.4
15 C  s               1.9       0.3       3.5       3.8       0.9       0.2
15 C  px              1.5       6.7       3.7      11.7       5.2       0.0
15 C  py              8.1       4.8       7.8       4.3       1.6       2.0
16 C  s               0.4       0.3       3.2       4.7       1.6       0.0
16 C  px             11.2       4.1       8.2       4.9       1.7       0.7
16 C  py              0.8       6.3       3.9       7.8       2.5       0.0
17 H  s               3.1       3.6       0.0       1.2       0.8       0.0
18 H  s               1.9       3.2       0.1       0.5       0.1       0.0
19 H  s               5.2       5.0       0.9       0.0       0.0       0.4



                      *****************************
                      * MAYER POPULATION ANALYSIS *
                      *****************************

  NA   - Mulliken gross atomic population
  ZA   - Total nuclear charge
  QA   - Mulliken gross atomic charge
  VA   - Mayer's total valence
  BVA  - Mayer's bonded valence
  FA   - Mayer's free valence

  ATOM       NA         ZA         QA         VA         BVA        FA
  0 C      6.0057     6.0000    -0.0057     3.9732     3.9732     0.0000
  1 C      6.0838     6.0000    -0.0838     3.9702     3.9702    -0.0000
  2 C      6.0816     6.0000    -0.0816     3.9707     3.9707    -0.0000
  3 C      6.0057     6.0000    -0.0057     3.9732     3.9732     0.0000
  4 C      6.0838     6.0000    -0.0838     3.9702     3.9702     0.0000
  5 C      6.0816     6.0000    -0.0816     3.9707     3.9707     0.0000
  6 H      0.9161     1.0000     0.0839     0.9930     0.9930     0.0000
  7 H      0.9155     1.0000     0.0845     0.9929     0.9929     0.0000
  8 H      0.9161     1.0000     0.0839     0.9930     0.9930     0.0000
  9 H      0.9155     1.0000     0.0845     0.9929     0.9929     0.0000
 10 C      6.0808     6.0000    -0.0808     3.9632     3.9632     0.0000
 11 C      6.1645     6.0000    -0.1645     3.9637     3.9637    -0.0000
 12 H      0.9163     1.0000     0.0837     0.9930     0.9930     0.0000
 13 H      0.9167     1.0000     0.0833     0.9931     0.9931     0.0000
 14 H      0.9189     1.0000     0.0811     0.9934     0.9934     0.0000
 15 C      6.0808     6.0000    -0.0808     3.9632     3.9632     0.0000
 16 C      6.1645     6.0000    -0.1645     3.9637     3.9637     0.0000
 17 H      0.9163     1.0000     0.0837     0.9930     0.9930     0.0000
 18 H      0.9167     1.0000     0.0833     0.9931     0.9931     0.0000
 19 H      0.9189     1.0000     0.0811     0.9934     0.9934    -0.0000

  Mayer bond orders larger than 0.100000
B(  0-C ,  1-C ) :   1.3782 B(  0-C ,  5-C ) :   1.3818 B(  0-C , 15-C ) :   1.0361 
B(  1-C ,  2-C ) :   1.4519 B(  1-C ,  4-C ) :   0.1032 B(  1-C ,  6-H ) :   0.9572 
B(  2-C ,  3-C ) :   1.3818 B(  2-C ,  5-C ) :   0.1092 B(  2-C ,  7-H ) :   0.9511 
B(  3-C ,  4-C ) :   1.3782 B(  3-C , 10-C ) :   1.0361 B(  4-C ,  5-C ) :   1.4519 
B(  4-C ,  8-H ) :   0.9572 B(  5-C ,  9-H ) :   0.9511 B( 10-C , 11-C ) :   1.9234 
B( 10-C , 12-H ) :   0.9557 B( 11-C , 13-H ) :   0.9646 B( 11-C , 14-H ) :   0.9579 
B( 15-C , 16-C ) :   1.9234 B( 15-C , 17-H ) :   0.9557 B( 16-C , 18-H ) :   0.9646 
B( 16-C , 19-H ) :   0.9579 

-------
TIMINGS
-------

Total SCF time: 0 days 0 hours 0 min 13 sec 

Total time                  ....      13.320 sec
Sum of individual times     ....      13.218 sec  ( 99.2%)

Fock matrix formation       ....      12.199 sec  ( 91.6%)
  XC integration            ....       5.607 sec  ( 46.0% of F)
    Basis function eval.    ....       2.923 sec  ( 52.1% of XC)
    Density eval.           ....       0.797 sec  ( 14.2% of XC)
    XC-Functional eval.     ....       1.158 sec  ( 20.7% of XC)
    XC-Potential eval.      ....       0.509 sec  (  9.1% of XC)
Diagonalization             ....       0.003 sec  (  0.0%)
Density matrix formation    ....       0.001 sec  (  0.0%)
Population analysis         ....       0.006 sec  (  0.0%)
Initial guess               ....       0.177 sec  (  1.3%)
Orbital Transformation      ....       0.000 sec  (  0.0%)
Orbital Orthonormalization  ....       0.000 sec  (  0.0%)
DIIS solution               ....       0.001 sec  (  0.0%)
SOSCF solution              ....       0.002 sec  (  0.0%)
Grid generation             ....       0.831 sec  (  6.2%)

Maximum memory used throughout the entire SCF-calculation: 235.4 MB


-------------------------------------------------------------------------------
                          DFT DISPERSION CORRECTION                            
                                                                               
                              DFTD3 V3.1  Rev 1                                
                              USING zero damping                               
-------------------------------------------------------------------------------
The BP86 functional is recognized
Active option DFTDOPT                   ...         3   

molecular C6(AA) [au] = 4612.935949 


            DFT-D V3
 parameters
 s6 scaling factor         :     1.0000 
 rs6 scaling factor        :     1.1390 
 s8 scaling factor         :     1.6830 
 rs8 scaling factor        :     1.0000 
 Damping factor alpha6     :    14.0000 
 Damping factor alpha8     :    16.0000 
 ad hoc parameters k1-k3   :    16.0000     1.3333    -4.0000 

 Edisp/kcal,au: -9.236897831802  -0.014719932094 
 E6   /kcal   :  -2.840101868 
 E8   /kcal   :  -6.396795964 
 % E8         :  69.252643907 

-------------------------   ----------------
Dispersion correction           -0.014719932
-------------------------   ----------------


-------------------------   --------------------
FINAL SINGLE POINT ENERGY      -382.331679396225
-------------------------   --------------------


                            ***************************************
                            *     ORCA property calculations      *
                            ***************************************

                                    ---------------------
                                    Active property flags
                                    ---------------------
   (+) Dipole Moment


------------------------------------------------------------------------------
                       ORCA ELECTRIC PROPERTIES CALCULATION
------------------------------------------------------------------------------

Dipole Moment Calculation                       ... on
Quadrupole Moment Calculation                   ... off
Polarizability Calculation                      ... off
GBWName                                         ... dvb_dispersion_bp86_d3zero.gbw
Electron density file                           ... dvb_dispersion_bp86_d3zero.scfp
----------------------
SHARK INTEGRAL PACKAGE
----------------------

Number of atoms                             ...     20
Number of basis functions                   ...     60
Number of shells                            ...     40
Maximum angular momentum                    ...      1
Integral batch strategy                     ... SHARK/LIBINT Hybrid
RI-J (if used) integral strategy            ... SPLIT-RIJ (Revised 2003 algorithm where possible)
Printlevel                                  ...      2
Contraction scheme used                     ... SEGMENTED contraction
Coulomb Range Separation                    ... NOT USED
Exchange Range Separation                   ... NOT USED
Finite Nucleus Model                        ... NOT USED
Auxiliary Coulomb fitting basis             ... NOT available
Auxiliary J/K fitting basis                 ... NOT available
Auxiliary Correlation fitting basis         ... NOT available
Auxiliary 'external' fitting basis          ... NOT available
Integral threshold                          ...     1.000000e-12
Primitive cut-off                           ...     1.000000e-14
Primitive pair pre-selection threshold      ...     1.000000e-14

The origin for moment calculation is the CENTER OF MASS  = ( 0.000000, -0.000000  0.000000)

-------------
DIPOLE MOMENT
-------------
                                X             Y             Z
Electronic contribution:      0.00000      -0.00000       0.00000
Nuclear contribution   :     -0.00000       0.00000       0.00000
                        -----------------------------------------
Total Dipole Moment    :      0.00000      -0.00000       0.00000
                        -----------------------------------------
Magnitude (a.u.)       :      0.00000
Magnitude (Debye)      :      0.00000



--------------------
Rotational spectrum 
--------------------
 
Rotational constants in cm-1:     0.153862     0.023555     0.020428 
Rotational constants in MHz :  4612.665232   706.155435   612.402415 

 Dipole components along the rotational axes: 
x,y,z [a.u.] :     0.000000    -0.000000     0.000000 
x,y,z [Debye]:     0.000000    -0.000000     0.000000 

 

Timings for individual modules:

Sum of individual times         ...       13.382 sec (=   0.223 min)
GTO integral calculation        ...        0.053 sec (=   0.001 min)   0.4 %
SCF iterations                  ...       13.328 sec (=   0.222 min)  99.6 %
                             ****ORCA TERMINATED NORMALLY****
TOTAL RUN TIME: 0 days 0 hours 0 minutes 13 seconds 463 msec
