
                                 *****************
                                 * O   R   C   A *
                                 *****************

                                            #,                                       
                                            ###                                      
                                            ####                                     
                                            #####                                    
                                            ######                                   
                                           ########,                                 
                                     ,,################,,,,,                         
                               ,,#################################,,                 
                          ,,##########################################,,             
                       ,#########################################, ''#####,          
                    ,#############################################,,   '####,        
                  ,##################################################,,,,####,       
                ,###########''''           ''''###############################       
              ,#####''   ,,,,##########,,,,          '''####'''          '####       
            ,##' ,,,,###########################,,,                        '##       
           ' ,,###''''                  '''############,,,                           
         ,,##''                                '''############,,,,        ,,,,,,###''
      ,#''                                            '''#######################'''  
     '                                                          ''''####''''         
             ,#######,   #######,   ,#######,      ##                                
            ,#'     '#,  ##    ##  ,#'     '#,    #''#        ######   ,####,        
            ##       ##  ##   ,#'  ##            #'  '#       #        #'  '#        
            ##       ##  #######   ##           ,######,      #####,   #    #        
            '#,     ,#'  ##    ##  '#,     ,#' ,#      #,         ##   #,  ,#        
             '#######'   ##     ##  '#######'  #'      '#     #####' # '####'        



                  #######################################################
                  #                        -***-                        #
                  #          Department of theory and spectroscopy      #
                  #    Directorship and core code : Frank Neese         #
                  #        Max Planck Institute fuer Kohlenforschung    #
                  #                Kaiser Wilhelm Platz 1               #
                  #                 D-45470 Muelheim/Ruhr               #
                  #                      Germany                        #
                  #                                                     #
                  #                  All rights reserved                #
                  #                        -***-                        #
                  #######################################################


                         Program Version 5.0.1 -  RELEASE  -


 With contributions from (in alphabetic order):
   Daniel Aravena         : Magnetic Suceptibility
   Michael Atanasov       : Ab Initio Ligand Field Theory (pilot matlab implementation)
   Alexander A. Auer      : GIAO ZORA, VPT2 properties, NMR spectrum
   Ute Becker             : Parallelization
   Giovanni Bistoni       : ED, misc. LED, open-shell LED, HFLD
   Martin Brehm           : Molecular dynamics
   Dmytro Bykov           : SCF Hessian
   Vijay G. Chilkuri      : MRCI spin determinant printing, contributions to CSF-ICE
   Dipayan Datta          : RHF DLPNO-CCSD density
   Achintya Kumar Dutta   : EOM-CC, STEOM-CC
   Dmitry Ganyushin       : Spin-Orbit,Spin-Spin,Magnetic field MRCI
   Miquel Garcia          : C-PCM and meta-GGA Hessian, CC/C-PCM, Gaussian charge scheme
   Yang Guo               : DLPNO-NEVPT2, F12-NEVPT2, CIM, IAO-localization
   Andreas Hansen         : Spin unrestricted coupled pair/coupled cluster methods
   Benjamin Helmich-Paris : MC-RPA, TRAH-SCF, COSX integrals
   Lee Huntington         : MR-EOM, pCC
   Robert Izsak           : Overlap fitted RIJCOSX, COSX-SCS-MP3, EOM
   Marcus Kettner         : VPT2
   Christian Kollmar      : KDIIS, OOCD, Brueckner-CCSD(T), CCSD density, CASPT2, CASPT2-K
   Simone Kossmann        : Meta GGA functionals, TD-DFT gradient, OOMP2, MP2 Hessian
   Martin Krupicka        : Initial AUTO-CI
   Lucas Lang             : DCDCAS
   Marvin Lechner         : AUTO-CI (C++ implementation), FIC-MRCC
   Dagmar Lenk            : GEPOL surface, SMD
   Dimitrios Liakos       : Extrapolation schemes; Compound Job, initial MDCI parallelization
   Dimitrios Manganas     : Further ROCIS development; embedding schemes
   Dimitrios Pantazis     : SARC Basis sets
   Anastasios Papadopoulos: AUTO-CI, single reference methods and gradients
   Taras Petrenko         : DFT Hessian,TD-DFT gradient, ASA, ECA, R-Raman, ABS, FL, XAS/XES, NRVS
   Peter Pinski           : DLPNO-MP2, DLPNO-MP2 Gradient
   Christoph Reimann      : Effective Core Potentials
   Marius Retegan         : Local ZFS, SOC
   Christoph Riplinger    : Optimizer, TS searches, QM/MM, DLPNO-CCSD(T), (RO)-DLPNO pert. Triples
   Tobias Risthaus        : Range-separated hybrids, TD-DFT gradient, RPA, STAB
   Michael Roemelt        : Original ROCIS implementation
   Masaaki Saitow         : Open-shell DLPNO-CCSD energy and density
   Barbara Sandhoefer     : DKH picture change effects
   Avijit Sen             : IP-ROCIS
   Kantharuban Sivalingam : CASSCF convergence, NEVPT2, FIC-MRCI
   Bernardo de Souza      : ESD, SOC TD-DFT
   Georgi Stoychev        : AutoAux, RI-MP2 NMR, DLPNO-MP2 response
   Willem Van den Heuvel  : Paramagnetic NMR
   Boris Wezisla          : Elementary symmetry handling
   Frank Wennmohs         : Technical directorship


 We gratefully acknowledge several colleagues who have allowed us to
 interface, adapt or use parts of their codes:
   Stefan Grimme, W. Hujo, H. Kruse, P. Pracht,  : VdW corrections, initial TS optimization,
                  C. Bannwarth, S. Ehlert          DFT functionals, gCP, sTDA/sTD-DF
   Ed Valeev, F. Pavosevic, A. Kumar             : LibInt (2-el integral package), F12 methods
   Garnet Chan, S. Sharma, J. Yang, R. Olivares  : DMRG
   Ulf Ekstrom                                   : XCFun DFT Library
   Mihaly Kallay                                 : mrcc  (arbitrary order and MRCC methods)
   Jiri Pittner, Ondrej Demel                    : Mk-CCSD
   Frank Weinhold                                : gennbo (NPA and NBO analysis)
   Christopher J. Cramer and Donald G. Truhlar   : smd solvation model
   Lars Goerigk                                  : TD-DFT with DH, B97 family of functionals
   V. Asgeirsson, H. Jonsson                     : NEB implementation
   FAccTs GmbH                                   : IRC, NEB, NEB-TS, DLPNO-Multilevel, CI-OPT
                                                   MM, QMMM, 2- and 3-layer-ONIOM, Crystal-QMMM,
                                                   LR-CPCM, SF, NACMEs, symmetry and pop. for TD-DFT,
                                                   nearIR, NL-DFT gradient (VV10), updates on ESD,
                                                   ML-optimized integration grids
   S Lehtola, MJT Oliveira, MAL Marques          : LibXC Library
   Liviu Ungur et al                             : ANISO software


 Your calculation uses the libint2 library for the computation of 2-el integrals
 For citations please refer to: http://libint.valeyev.net

 Your ORCA version has been built with support for libXC version: 5.1.0
 For citations please refer to: https://tddft.org/programs/libxc/

 This ORCA versions uses:
   CBLAS   interface :  Fast vector & matrix operations
   LAPACKE interface :  Fast linear algebra routines
   SCALAPACK package :  Parallel linear algebra routines
   Shared memory     :  Shared parallel matrices


================================================================================

----- Orbital basis set information -----
Your calculation utilizes the basis: STO-3G
   H-Ne       : W. J. Hehre, R. F. Stewart and J. A. Pople, J. Chem. Phys. 2657 (1969).
   Na-Ar      : W. J. Hehre, R. Ditchfield, R. F. Stewart and J. A. Pople, J. Chem. Phys. 2769 (1970).
   K,Ca,Ga-Kr : W. J. Pietro, B. A. Levy, W. J. Hehre and R. F. Stewart, J. Am. Chem. Soc. 19, 2225 (1980).
   Sc-Zn,Y-Cd : W. J. Pietro and W. J. Hehre, J. Comp. Chem. 4, 241 (1983).

----- AuxJ basis set information -----
Your calculation utilizes the auxiliary basis: def2/J
   F. Weigend, Phys. Chem. Chem. Phys. 8, 1057 (2006).

================================================================================
                                        WARNINGS
                       Please study these warnings very carefully!
================================================================================


INFO   : the flag for use of the SHARK integral package has been found!

================================================================================
                                       INPUT FILE
================================================================================
NAME = dvb_ir.inp
|  1> ! rks b3lyp sto-3g usesym freq
|  2> 
|  3> * xyz 0 1
|  4>  C       -1.4152533224   0.2302217854   0.0000000000
|  5>  C        1.4152533224  -0.2302217854   0.0000000000
|  6>  C       -0.4951331558   1.3144608674   0.0000000000
|  7>  C        0.4951331558  -1.3144608674   0.0000000000
|  8>  C        0.8894090436   1.0909493743   0.0000000000
|  9>  C       -0.8894090436  -1.0909493743   0.0000000000
| 10>  H       -0.8795511985   2.3437343748   0.0000000000
| 11>  H        0.8795511985  -2.3437343748   0.0000000000
| 12>  H        1.5779041557   1.9450061275   0.0000000000
| 13>  H       -1.5779041557  -1.9450061275   0.0000000000
| 14>  C        2.8845844962  -0.5210893778   0.0000000000
| 15>  C       -2.8845844962   0.5210893778   0.0000000000
| 16>  H        3.1403356810  -1.5919605685   0.0000000000
| 17>  H       -3.1403356810   1.5919605685   0.0000000000
| 18>  C        3.8800428103   0.3822535424   0.0000000000
| 19>  C       -3.8800428103  -0.3822535424   0.0000000000
| 20>  H        3.6946765858   1.4624389570   0.0000000000
| 21>  H       -3.6946765858  -1.4624389570   0.0000000000
| 22>  H        4.9316453546   0.0711049543   0.0000000000
| 23>  H       -4.9316453546  -0.0711049543   0.0000000000
| 24> *
| 25> %pal
| 26>  nprocs 2
| 27> end
| 28> 
| 29>                          ****END OF INPUT****
================================================================================

------------------------------------------------------------------------------
                            SYMMETRY HANDLING SETUP
------------------------------------------------------------------------------

------------------
SYMMETRY DETECTION
------------------
The point group will now be determined using a tolerance of 1.0000e-04.
Splitting atom subsets according to nuclear charge, mass and basis set.
Splitting atom subsets according to distance from the molecule's center.
Identifying relative distance patterns of the atoms.
Splitting atom subsets according to atoms' relative distance patterns.
Bring atoms of each subset into input order.
The molecule is planar.
The molecule has a center of inversion.
Analyzing the first atom subset for its symmetry.
The subset is a centered atom pair.
Testing point group C2h.
Success!
This point group has been found:    C2h
Largest non-degenerate subgroup:    C2h


Symmetry-perfected Cartesians (point group C2h):

Atom          Symmetry-perfected Cartesians (x, y, z; au)
  0      -2.674441189458    0.435056124468    0.000000000000
  1       2.674441189458   -0.435056124468    0.000000000000
  2      -0.935666064286    2.483971053143    0.000000000000
  3       0.935666064286   -2.483971053143    0.000000000000
  4       1.680739513437    2.061595543400    0.000000000000
  5      -1.680739513437   -2.061595543400    0.000000000000
  6      -1.662110885927    4.429016099029    0.000000000000
  7       1.662110885927   -4.429016099029    0.000000000000
  8       2.981806719849    3.675528909774    0.000000000000
  9      -2.981806719849   -3.675528909774    0.000000000000
 10       5.451074707973   -0.984716215337    0.000000000000
 11      -5.451074707973    0.984716215337    0.000000000000
 12       5.934374405671   -3.008369490467    0.000000000000
 13      -5.934374405671    3.008369490467    0.000000000000
 14       7.332218299357    0.722354508857    0.000000000000
 15      -7.332218299357   -0.722354508857    0.000000000000
 16       6.981926900573    2.763609116307    0.000000000000
 17      -6.981926900573   -2.763609116307    0.000000000000
 18       9.319459109819    0.134368890392    0.000000000000
 19      -9.319459109819   -0.134368890392    0.000000000000


-----------------------------------------------
SYMMETRY-PERFECTED CARTESIAN COORDINATES (A.U.)
-----------------------------------------------
Warning (ORCA_SYM): Coordinates were not cleaned so far!

------------------
SYMMETRY REDUCTION
------------------
ORCA supports only abelian point groups.
It is now checked, if the determined point group is supported:
Point Group ( C2h   ) is          ... supported

(Re)building abelian point group:
Creating Character Table          ... done
Making direct product table       ... done
Constructing symmetry operations  ... done
Creating atom transfer table      ... done
Creating asymmetric unit          ... done

----------------------
ASYMMETRIC UNIT IN C2h
----------------------
  #  AT     MASS              COORDS (A.U.)             BAS
   0 C   12.0110  -2.67444119   0.43505612   0.00000000   0
   2 C   12.0110  -0.93566606   2.48397105   0.00000000   0
   4 C   12.0110   1.68073951   2.06159554   0.00000000   0
   6 H    1.0080  -1.66211089   4.42901610   0.00000000   0
   8 H    1.0080   2.98180672   3.67552891   0.00000000   0
  10 C   12.0110   5.45107471  -0.98471622   0.00000000   0
  12 H    1.0080   5.93437441  -3.00836949   0.00000000   0
  14 C   12.0110   7.33221830   0.72235451   0.00000000   0
  16 H    1.0080   6.98192690   2.76360912   0.00000000   0
  18 H    1.0080   9.31945911   0.13436889   0.00000000   0

----------------------
SYMMETRY ADAPTED BASIS
----------------------
The coefficients for the symmetry adapted linear combinations (SALCS)
of basis functions will now be computed:
Number of basis functions         ...    60
Preparing memory                  ... done
Constructing Gamma(red)           ... done
Reducing Gamma(red)               ... done
Constructing SALCs                ... done
Checking SALC integrity           ... nothing suspicious
Normalizing SALCs                 ... done

Storing the symmetry object:
Symmetry file                     ... dvb_ir.sym.tmp
Writing symmetry information      ... done

                       ****************************
                       * Single Point Calculation *
                       ****************************

---------------------------------
CARTESIAN COORDINATES (ANGSTROEM)
---------------------------------
  C     -1.415253    0.230222    0.000000
  C      1.415253   -0.230222    0.000000
  C     -0.495133    1.314461    0.000000
  C      0.495133   -1.314461    0.000000
  C      0.889409    1.090949    0.000000
  C     -0.889409   -1.090949    0.000000
  H     -0.879551    2.343734    0.000000
  H      0.879551   -2.343734    0.000000
  H      1.577904    1.945006    0.000000
  H     -1.577904   -1.945006    0.000000
  C      2.884584   -0.521089    0.000000
  C     -2.884584    0.521089    0.000000
  H      3.140336   -1.591961    0.000000
  H     -3.140336    1.591961    0.000000
  C      3.880043    0.382254    0.000000
  C     -3.880043   -0.382254    0.000000
  H      3.694677    1.462439    0.000000
  H     -3.694677   -1.462439    0.000000
  H      4.931645    0.071105    0.000000
  H     -4.931645   -0.071105    0.000000

----------------------------
CARTESIAN COORDINATES (A.U.)
----------------------------
  NO LB      ZA    FRAG     MASS         X           Y           Z
   0 C     6.0000    0    12.011   -2.674441    0.435056    0.000000
   1 C     6.0000    0    12.011    2.674441   -0.435056    0.000000
   2 C     6.0000    0    12.011   -0.935666    2.483971    0.000000
   3 C     6.0000    0    12.011    0.935666   -2.483971    0.000000
   4 C     6.0000    0    12.011    1.680740    2.061596    0.000000
   5 C     6.0000    0    12.011   -1.680740   -2.061596    0.000000
   6 H     1.0000    0     1.008   -1.662111    4.429016    0.000000
   7 H     1.0000    0     1.008    1.662111   -4.429016    0.000000
   8 H     1.0000    0     1.008    2.981807    3.675529    0.000000
   9 H     1.0000    0     1.008   -2.981807   -3.675529    0.000000
  10 C     6.0000    0    12.011    5.451075   -0.984716    0.000000
  11 C     6.0000    0    12.011   -5.451075    0.984716    0.000000
  12 H     1.0000    0     1.008    5.934374   -3.008369    0.000000
  13 H     1.0000    0     1.008   -5.934374    3.008369    0.000000
  14 C     6.0000    0    12.011    7.332218    0.722355    0.000000
  15 C     6.0000    0    12.011   -7.332218   -0.722355    0.000000
  16 H     1.0000    0     1.008    6.981927    2.763609    0.000000
  17 H     1.0000    0     1.008   -6.981927   -2.763609    0.000000
  18 H     1.0000    0     1.008    9.319459    0.134369    0.000000
  19 H     1.0000    0     1.008   -9.319459   -0.134369    0.000000

--------------------------------
INTERNAL COORDINATES (ANGSTROEM)
--------------------------------
 C      0   0   0     0.000000000000     0.00000000     0.00000000
 C      1   0   0     2.867712703209     0.00000000     0.00000000
 C      1   2   0     1.422039207589    58.92046780     0.00000000
 C      2   1   3     1.422039207589    58.92046780   180.00000085
 C      3   1   2     1.402467286416   121.14866524     0.00000000
 C      4   2   1     1.402467286416   121.14866524     0.00000000
 H      3   1   2     1.098717973180   119.20109491   180.00000000
 H      4   2   1     1.098717973180   119.20109491   180.00000000
 H      5   3   1     1.097013426113   119.70357006   180.00000000
 H      6   4   2     1.097013426113   119.70357006   180.00000000
 C      2   1   3     1.497844469432   178.04202002   180.00000000
 C      1   2   3     1.497844469432   178.04202002     0.00000000
 H     11   2   5     1.100987636442   114.62953459   180.00000000
 H     12   1   6     1.100987636442   114.62953459   180.00000000
 C     11   2   5     1.344234237991   126.57992264     0.00000000
 C     12   1   6     1.344234237991   126.57992264     0.00000000
 H     15  11   2     1.095974984705   122.48517186     0.00000000
 H     16  12   1     1.095974984705   122.48517186     0.00000000
 H     15  11   2     1.096668297643   121.29492471   180.00000085
 H     16  12   1     1.096668297643   121.29492471   180.00000085

---------------------------
INTERNAL COORDINATES (A.U.)
---------------------------
 C      0   0   0     0.000000000000     0.00000000     0.00000000
 C      1   0   0     5.419191639833     0.00000000     0.00000000
 C      1   2   0     2.687264654042    58.92046780     0.00000000
 C      2   1   3     2.687264654042    58.92046780   180.00000085
 C      3   1   2     2.650279083110   121.14866524     0.00000000
 C      4   2   1     2.650279083110   121.14866524     0.00000000
 H      3   1   2     2.076276067727   119.20109491   180.00000000
 H      4   2   1     2.076276067727   119.20109491   180.00000000
 H      5   3   1     2.073054940588   119.70357006   180.00000000
 H      6   4   2     2.073054940588   119.70357006   180.00000000
 C      2   1   3     2.830515838436   178.04202002   180.00000000
 C      1   2   3     2.830515838436   178.04202002     0.00000000
 H     11   2   5     2.080565109708   114.62953459   180.00000000
 H     12   1   6     2.080565109708   114.62953459   180.00000000
 C     11   2   5     2.540234569643   126.57992264     0.00000000
 C     12   1   6     2.540234569643   126.57992264     0.00000000
 H     15  11   2     2.071092570722   122.48517186     0.00000000
 H     16  12   1     2.071092570722   122.48517186     0.00000000
 H     15  11   2     2.072402742299   121.29492471   180.00000085
 H     16  12   1     2.072402742299   121.29492471   180.00000085

---------------------
BASIS SET INFORMATION
---------------------
There are 2 groups of distinct atoms

 Group   1 Type C   : 6s3p contracted to 2s1p pattern {33/3}
 Group   2 Type H   : 3s contracted to 1s pattern {3}

Atom   0C    basis set group =>   1
Atom   1C    basis set group =>   1
Atom   2C    basis set group =>   1
Atom   3C    basis set group =>   1
Atom   4C    basis set group =>   1
Atom   5C    basis set group =>   1
Atom   6H    basis set group =>   2
Atom   7H    basis set group =>   2
Atom   8H    basis set group =>   2
Atom   9H    basis set group =>   2
Atom  10C    basis set group =>   1
Atom  11C    basis set group =>   1
Atom  12H    basis set group =>   2
Atom  13H    basis set group =>   2
Atom  14C    basis set group =>   1
Atom  15C    basis set group =>   1
Atom  16H    basis set group =>   2
Atom  17H    basis set group =>   2
Atom  18H    basis set group =>   2
Atom  19H    basis set group =>   2
---------------------------------
AUXILIARY/J BASIS SET INFORMATION
---------------------------------
There are 2 groups of distinct atoms

 Group   1 Type C   : 12s5p4d2f1g contracted to 6s4p3d1f1g pattern {711111/2111/211/2/1}
 Group   2 Type H   : 5s2p1d contracted to 3s1p1d pattern {311/2/1}

Atom   0C    basis set group =>   1
Atom   1C    basis set group =>   1
Atom   2C    basis set group =>   1
Atom   3C    basis set group =>   1
Atom   4C    basis set group =>   1
Atom   5C    basis set group =>   1
Atom   6H    basis set group =>   2
Atom   7H    basis set group =>   2
Atom   8H    basis set group =>   2
Atom   9H    basis set group =>   2
Atom  10C    basis set group =>   1
Atom  11C    basis set group =>   1
Atom  12H    basis set group =>   2
Atom  13H    basis set group =>   2
Atom  14C    basis set group =>   1
Atom  15C    basis set group =>   1
Atom  16H    basis set group =>   2
Atom  17H    basis set group =>   2
Atom  18H    basis set group =>   2
Atom  19H    basis set group =>   2

Checking for AutoStart:
The File: dvb_ir.gbw exists
Trying to determine its content:
     ... Fine, the file contains calculation information
     ... Fine, the calculation information was read
     ... Fine, the file contains a basis set
     ... Fine, the basis set was read
     ... Fine, the file contains a geometry
     ... Fine, the geometry was read
     ... The file does not contain orbitals - skipping AutoStart


           ************************************************************
           *        Program running with 2 parallel MPI-processes     *
           *              working on a common directory               *
           ************************************************************
------------------------------------------------------------------------------
                           ORCA GTO INTEGRAL CALCULATION
                           -- RI-GTO INTEGRALS CHOSEN --
------------------------------------------------------------------------------
------------------------------------------------------------------------------
                   ___                                                        
                  /   \      - P O W E R E D   B Y -                         
                 /     \                                                     
                 |  |  |   _    _      __       _____    __    __             
                 |  |  |  | |  | |    /  \     |  _  \  |  |  /  |          
                  \  \/   | |  | |   /    \    | | | |  |  | /  /          
                 / \  \   | |__| |  /  /\  \   | |_| |  |  |/  /          
                |  |  |   |  __  | /  /__\  \  |    /   |      \           
                |  |  |   | |  | | |   __   |  |    \   |  |\   \          
                \     /   | |  | | |  |  |  |  | |\  \  |  | \   \       
                 \___/    |_|  |_| |__|  |__|  |_| \__\ |__|  \__/        
                                                                              
                      - O R C A' S   B I G   F R I E N D -                    
                                      &                                       
                       - I N T E G R A L  F E E D E R -                       
                                                                              
 v1 FN, 2020, v2 2021                                                         
------------------------------------------------------------------------------


Reading SHARK input file dvb_ir.SHARKINP.tmp ... ok
----------------------
SHARK INTEGRAL PACKAGE
----------------------

Number of atoms                             ...     20
Number of basis functions                   ...     60
Number of shells                            ...     40
Maximum angular momentum                    ...      1
Integral batch strategy                     ... SHARK/LIBINT Hybrid
RI-J (if used) integral strategy            ... SPLIT-RIJ (Revised 2003 algorithm where possible)
Printlevel                                  ...      1
Contraction scheme used                     ... SEGMENTED contraction
Coulomb Range Separation                    ... NOT USED
Exchange Range Separation                   ... NOT USED
Finite Nucleus Model                        ... NOT USED
Auxiliary Coulomb fitting basis             ... AVAILABLE
   # of basis functions in Aux-J            ...    600
   # of shells in Aux-J                     ...    200
   Maximum angular momentum in Aux-J        ...      4
Auxiliary J/K fitting basis                 ... NOT available
Auxiliary Correlation fitting basis         ... NOT available
Auxiliary 'external' fitting basis          ... NOT available
Integral threshold                          ...     1.000000e-10
Primitive cut-off                           ...     1.000000e-11
Primitive pair pre-selection threshold      ...     1.000000e-11

Calculating pre-screening integrals         ... done (  0.0 sec) Dimension = 40
Organizing shell pair data                  ... done (  0.0 sec)
Shell pair information
Total number of shell pairs                 ...       820
Shell pairs after pre-screening             ...       750
Total number of primitive shell pairs       ...      7380
Primitive shell pairs kept                  ...      4803
          la=0 lb=0:    405 shell pairs
          la=1 lb=0:    290 shell pairs
          la=1 lb=1:     55 shell pairs

Calculating one electron integrals          ... done (  0.0 sec)
Calculating RI/J V-Matrix + Cholesky decomp.... done (  0.1 sec)
Calculating Nuclear repulsion               ... done (  0.0 sec) ENN=    445.936977869861 Eh

SHARK setup successfully completed in   0.1 seconds

Maximum memory used throughout the entire GTOINT-calculation: 7.1 MB


           ************************************************************
           *        Program running with 2 parallel MPI-processes     *
           *              working on a common directory               *
           ************************************************************
-------------------------------------------------------------------------------
                                 ORCA SCF
-------------------------------------------------------------------------------

------------
SCF SETTINGS
------------
Hamiltonian:
 Density Functional     Method          .... DFT(GTOs)
 Exchange Functional    Exchange        .... B88
   X-Alpha parameter    XAlpha          ....  0.666667
   Becke's b parameter  XBeta           ....  0.004200
 Correlation Functional Correlation     .... LYP
 LDA part of GGA corr.  LDAOpt          .... VWN-5
 Gradients option       PostSCFGGA      .... off
 Hybrid DFT is turned on
   Fraction HF Exchange ScalHFX         ....  0.200000
   Scaling of DF-GGA-X  ScalDFX         ....  0.720000
   Scaling of DF-GGA-C  ScalDFC         ....  0.810000
   Scaling of DF-LDA-C  ScalLDAC        ....  1.000000
   Perturbative correction              ....  0.000000
   Density functional embedding theory  .... OFF
   NL short-range parameter             ....  4.800000
 RI-approximation to the Coulomb term is turned on
   Number of AuxJ basis functions       .... 600
   RIJ-COSX (HFX calculated with COS-X)).... on


General Settings:
 Integral files         IntName         .... dvb_ir
 Hartree-Fock type      HFTyp           .... RHF
 Total Charge           Charge          ....    0
 Multiplicity           Mult            ....    1
 Number of Electrons    NEL             ....   70
 Basis Dimension        Dim             ....   60
 Nuclear Repulsion      ENuc            ....    445.9369778699 Eh

 Symmetry handling      UseSym         .... ON
 Point group                           .... C2h
 Used point group                      .... C2h
 Number of irreps                      .... 4
   Irrep   Ag has   25 symmetry adapted basis functions (ofs=   0)
   Irrep   Bg has    5 symmetry adapted basis functions (ofs=  25)
   Irrep   Au has    5 symmetry adapted basis functions (ofs=  30)
   Irrep   Bu has   25 symmetry adapted basis functions (ofs=  35)

Convergence Acceleration:
 DIIS                   CNVDIIS         .... on
   Start iteration      DIISMaxIt       ....    12
   Startup error        DIISStart       ....  0.200000
   # of expansion vecs  DIISMaxEq       ....     5
   Bias factor          DIISBfac        ....   1.050
   Max. coefficient     DIISMaxC        ....  10.000
 Trust-Rad. Augm. Hess. CNVTRAH         .... auto
   Auto Start mean grad. ratio tolernc. ....  1.125000
   Auto Start start iteration           ....    20
   Auto Start num. interpolation iter.  ....    10
   Max. Number of Micro iterations      ....    16
   Max. Number of Macro iterations      .... Maxiter - #DIIS iter
   Number of Davidson start vectors     ....     2
   Converg. threshold I  (grad. norm)   ....   5.000e-05
   Converg. threshold II (energy diff.) ....   1.000e-06
   Grad. Scal. Fac. for Micro threshold ....   0.100
   Minimum threshold for Micro iter.    ....   0.010
   NR start threshold (gradient norm)   ....   0.001
   Initial trust radius                 ....   0.400
   Minimum AH scaling param. (alpha)    ....   1.000
   Maximum AH scaling param. (alpha)    .... 1000.000
   Orbital update algorithm             .... Taylor
   White noise on init. David. guess    .... on
   Maximum white noise                  ....   0.010
   Quad. conv. algorithm                .... NR
 SOSCF                  CNVSOSCF        .... on
   Start iteration      SOSCFMaxIt      ....   150
   Startup grad/error   SOSCFStart      ....  0.003300
 Level Shifting         CNVShift        .... on
   Level shift para.    LevelShift      ....    0.2500
   Turn off err/grad.   ShiftErr        ....    0.0010
 Zerner damping         CNVZerner       .... off
 Static damping         CNVDamp         .... on
   Fraction old density DampFac         ....    0.7000
   Max. Damping (<1)    DampMax         ....    0.9800
   Min. Damping (>=0)   DampMin         ....    0.0000
   Turn off err/grad.   DampErr         ....    0.1000
 Fernandez-Rico         CNVRico         .... off

SCF Procedure:
 Maximum # iterations   MaxIter         ....   125
 SCF integral mode      SCFMode         .... Direct
   Integral package                     .... SHARK and LIBINT hybrid scheme
 Reset frequency        DirectResetFreq ....    20
 Integral Threshold     Thresh          ....  1.000e-10 Eh
 Primitive CutOff       TCut            ....  1.000e-11 Eh

Convergence Tolerance:
 Convergence Check Mode ConvCheckMode   .... Total+1el-Energy
 Convergence forced     ConvForced      .... 0
 Energy Change          TolE            ....  1.000e-06 Eh
 1-El. energy change                    ....  1.000e-03 Eh
 Orbital Gradient       TolG            ....  5.000e-05
 Orbital Rotation angle TolX            ....  5.000e-05
 DIIS Error             TolErr          ....  1.000e-06


Diagonalization of the overlap matrix:
Smallest eigenvalue                        ... 1.815e-01
Time for diagonalization                   ...    0.001 sec
Threshold for overlap eigenvalues          ... 1.000e-08
Number of eigenvalues below threshold      ... 0
Time for construction of square roots      ...    0.001 sec
Producing symmetrization matrix            ... done (   0.000 sec)
Total time needed                          ...    0.004 sec

Time for model grid setup =    0.200 sec

------------------------------
INITIAL GUESS: MODEL POTENTIAL
------------------------------
Loading Hartree-Fock densities                     ... done
Calculating cut-offs                               ... done
Initializing the effective Hamiltonian             ... done
Setting up the integral package (SHARK)            ... done
Starting the Coulomb interaction                   ... done (   0.1 sec)
Reading the grid                                   ... done
Mapping shells                                     ... done
Starting the XC term evaluation                    ... done (   0.1 sec)
  promolecular density results
     # of electrons  =     69.991104851
     EX              =    -54.264379134
     EC              =     -2.295156935
     EX+EC           =    -56.559536069
done (   0.0 sec)
Diagonalizing the Hamiltonian                      ... done (   0.0 sec)
Back transforming the eigenvectors                 ... done (   0.0 sec)
Now organizing SCF variables                       ... done
The symmetry of the initial guess is 1-Ag
Irrep occupations for operator 0
    Ag -   15
    Bg -    3
    Au -    2
    Bu -   15
                      ------------------
                      INITIAL GUESS DONE (   0.3 sec)
                      ------------------
-------------------
DFT GRID GENERATION
-------------------

General Integration Accuracy     IntAcc      ... 4.388
Radial Grid Type                 RadialGrid  ... OptM3 with GC (2021)
Angular Grid (max. ang.)         AngularGrid ... 4 (Lebedev-302)
Angular grid pruning method      GridPruning ... 4 (adaptive)
Weight generation scheme         WeightScheme... Becke
Basis function cutoff            BFCut       ... 1.0000e-10
Integration weight cutoff        WCut        ... 1.0000e-14
Angular grids for H and He will be reduced by one unit
Partially contracted basis set               ... off
Rotationally invariant grid construction     ... off

Total number of grid points                  ...    92318
Total number of batches                      ...     1450
Average number of points per batch           ...       63
Average number of grid points per atom       ...     4616
Time for grid setup =    1.024 sec

--------------------
COSX GRID GENERATION
--------------------

GRIDX 1
-------
General Integration Accuracy     IntAcc      ... 3.816
Radial Grid Type                 RadialGrid  ... OptM3 with GC (2021)
Angular Grid (max. ang.)         AngularGrid ... 1 (Lebedev-50)
Angular grid pruning method      GridPruning ... 4 (adaptive)
Weight generation scheme         WeightScheme... Becke
Basis function cutoff            BFCut       ... 1.0000e-10
Integration weight cutoff        WCut        ... 1.0000e-14
Angular grids for H and He will be reduced by one unit
Partially contracted basis set               ... on
Rotationally invariant grid construction     ... off

Total number of grid points                  ...    11840
Total number of batches                      ...      194
Average number of points per batch           ...       61
Average number of grid points per atom       ...      592
UseSFitting                                  ... on

GRIDX 2
-------
General Integration Accuracy     IntAcc      ... 4.020
Radial Grid Type                 RadialGrid  ... OptM3 with GC (2021)
Angular Grid (max. ang.)         AngularGrid ... 2 (Lebedev-110)
Angular grid pruning method      GridPruning ... 4 (adaptive)
Weight generation scheme         WeightScheme... Becke
Basis function cutoff            BFCut       ... 1.0000e-10
Integration weight cutoff        WCut        ... 1.0000e-14
Angular grids for H and He will be reduced by one unit
Partially contracted basis set               ... on
Rotationally invariant grid construction     ... off

Total number of grid points                  ...    25542
Total number of batches                      ...      412
Average number of points per batch           ...       61
Average number of grid points per atom       ...     1277
UseSFitting                                  ... on

GRIDX 3
-------
General Integration Accuracy     IntAcc      ... 4.338
Radial Grid Type                 RadialGrid  ... OptM3 with GC (2021)
Angular Grid (max. ang.)         AngularGrid ... 3 (Lebedev-194)
Angular grid pruning method      GridPruning ... 4 (adaptive)
Weight generation scheme         WeightScheme... Becke
Basis function cutoff            BFCut       ... 1.0000e-10
Integration weight cutoff        WCut        ... 1.0000e-14
Angular grids for H and He will be reduced by one unit
Partially contracted basis set               ... on
Rotationally invariant grid construction     ... off

Total number of grid points                  ...    55986
Total number of batches                      ...      884
Average number of points per batch           ...       63
Average number of grid points per atom       ...     2799
UseSFitting                                  ... on

Time for X-Grid setup             =    0.776 sec

--------------
SCF ITERATIONS
--------------
ITER       Energy         Delta-E        Max-DP      RMS-DP      [F,P]     Damp
               ***  Starting incremental Fock matrix formation  ***
  0   -382.0027940437   0.000000000000 0.04249382  0.00318998  0.0765493 0.7000
  1   -382.0234997510  -0.020705707276 0.03339237  0.00251935  0.0478627 0.7000
                               ***Turning on DIIS***
  2   -382.0348811640  -0.011381412943 0.06547211  0.00499214  0.0257122 0.0000
  3   -382.0525236705  -0.017642506561 0.02217244  0.00162276  0.0170497 0.0000
  4   -382.0550037540  -0.002480083421 0.00557954  0.00039139  0.0040689 0.0000
                      *** Initiating the SOSCF procedure ***
                           *** Shutting down DIIS ***
                      *** Re-Reading the Fockian *** 
                      *** Removing any level shift *** 
ITER      Energy       Delta-E        Grad      Rot      Max-DP    RMS-DP
  5   -382.05512492  -0.0001211639  0.000380  0.000380  0.000959  0.000076
               *** Restarting incremental Fock matrix formation ***
  6   -382.05517449  -0.0000495759  0.000229  0.000917  0.000920  0.000049
  7   -382.05517460  -0.0000001080  0.000174  0.000362  0.000653  0.000028
  8   -382.05517509  -0.0000004842  0.000054  0.000116  0.000201  0.000014
                 **** Energy Check signals convergence ****
              ***Rediagonalizing the Fockian in SOSCF/NRSCF***

               *****************************************************
               *                     SUCCESS                       *
               *           SCF CONVERGED AFTER   9 CYCLES          *
               *****************************************************

Old exchange energy                            =    -11.058893868 Eh
New exchange energy                            =    -11.058827365 Eh
Exchange energy change after final integration =      0.000066503 Eh
Total energy after final integration           =   -382.055108614 Eh
Final COS-X integration done in                =     3.749 sec

----------------
TOTAL SCF ENERGY
----------------

Total Energy       :         -382.05510861 Eh          -10396.24804 eV

Components:
Nuclear Repulsion  :          445.93697787 Eh           12134.56208 eV
Electronic Energy  :         -827.99208648 Eh          -22530.81012 eV
One Electron Energy:        -1400.63701581 Eh          -38113.27084 eV
Two Electron Energy:          572.64492933 Eh           15582.46072 eV
Max COSX asymmetry :            0.00000065 Eh               0.00002 eV

Virial components:
Potential Energy   :         -757.89749586 Eh          -20623.43934 eV
Kinetic Energy     :          375.84238725 Eh           10227.19130 eV
Virial Ratio       :            2.01653012


DFT components:
N(Alpha)           :       34.999915907655 electrons
N(Beta)            :       34.999915907655 electrons
N(Total)           :       69.999831815310 electrons
E(X)               :      -43.808396240884 Eh       
E(C)               :       -2.717819906279 Eh       
E(XC)              :      -46.526216147164 Eh       
DFET-embed. en.    :        0.000000000000 Eh       

---------------
SCF CONVERGENCE
---------------

  Last Energy change         ...   -3.1002e-08  Tolerance :   1.0000e-06
  Last MAX-Density change    ...    2.6645e-15  Tolerance :   1.0000e-05
  Last RMS-Density change    ...    1.1161e-16  Tolerance :   1.0000e-06
  Last Orbital Gradient      ...    3.6780e-05  Tolerance :   5.0000e-05
  Last Orbital Rotation      ...    3.7542e-05  Tolerance :   5.0000e-05

             **** THE GBW FILE WAS UPDATED (dvb_ir.gbw) ****
             **** DENSITY dvb_ir.scfp WAS UPDATED ****
             **** ENERGY FILE WAS UPDATED (dvb_ir.en.tmp) ****
             **** THE GBW FILE WAS UPDATED (dvb_ir.gbw) ****
             **** DENSITY dvb_ir.scfp WAS UPDATED ****
----------------
ORBITAL ENERGIES
----------------

  NO   OCC          E(Eh)            E(eV)    Irrep 
   0   2.0000     -10.016661      -272.5672    1-Bu
   1   2.0000     -10.016613      -272.5659    1-Ag
   2   2.0000     -10.004551      -272.2377    2-Bu
   3   2.0000     -10.004550      -272.2376    2-Ag
   4   2.0000     -10.003446      -272.2076    3-Ag
   5   2.0000     -10.003444      -272.2076    3-Bu
   6   2.0000     -10.002795      -272.1899    4-Bu
   7   2.0000     -10.002652      -272.1860    4-Ag
   8   2.0000      -9.988711      -271.8067    5-Bu
   9   2.0000      -9.988711      -271.8067    5-Ag
  10   2.0000      -0.805855       -21.9284    6-Ag
  11   2.0000      -0.750309       -20.4170    6-Bu
  12   2.0000      -0.714245       -19.4356    7-Ag
  13   2.0000      -0.696312       -18.9476    7-Bu
  14   2.0000      -0.663686       -18.0598    8-Bu
  15   2.0000      -0.584901       -15.9160    8-Ag
  16   2.0000      -0.555532       -15.1168    9-Ag
  17   2.0000      -0.527807       -14.3623    9-Bu
  18   2.0000      -0.506333       -13.7780   10-Ag
  19   2.0000      -0.453992       -12.3538   11-Ag
  20   2.0000      -0.435587       -11.8529   10-Bu
  21   2.0000      -0.407390       -11.0856   11-Bu
  22   2.0000      -0.394085       -10.7236   12-Bu
  23   2.0000      -0.392326       -10.6757   12-Ag
  24   2.0000      -0.370818       -10.0905   13-Bu
  25   2.0000      -0.347318        -9.4510   14-Bu
  26   2.0000      -0.343406        -9.3445   13-Ag
  27   2.0000      -0.320890        -8.7319    1-Au
  28   2.0000      -0.307450        -8.3661   15-Bu
  29   2.0000      -0.289367        -7.8741   14-Ag
  30   2.0000      -0.283882        -7.7248   15-Ag
  31   2.0000      -0.259874        -7.0715    1-Bg
  32   2.0000      -0.208767        -5.6808    2-Au
  33   2.0000      -0.191582        -5.2132    2-Bg
  34   2.0000      -0.149394        -4.0652    3-Bg
  35   0.0000       0.041148         1.1197    3-Au
  36   0.0000       0.093750         2.5511    4-Au
  37   0.0000       0.114351         3.1117    4-Bg
  38   0.0000       0.185850         5.0572    5-Au
  39   0.0000       0.275982         7.5098    5-Bg
  40   0.0000       0.336140         9.1468   16-Ag
  41   0.0000       0.344297         9.3688   16-Bu
  42   0.0000       0.383213        10.4278   17-Bu
  43   0.0000       0.384918        10.4741   17-Ag
  44   0.0000       0.413996        11.2654   18-Ag
  45   0.0000       0.414874        11.2893   18-Bu
  46   0.0000       0.429456        11.6861   19-Bu
  47   0.0000       0.443043        12.0558   19-Ag
  48   0.0000       0.457381        12.4460   20-Bu
  49   0.0000       0.482023        13.1165   20-Ag
  50   0.0000       0.529279        14.4024   21-Ag
  51   0.0000       0.550070        14.9682   21-Bu
  52   0.0000       0.580118        15.7858   22-Ag
  53   0.0000       0.602169        16.3858   22-Bu
  54   0.0000       0.628597        17.1050   23-Bu
  55   0.0000       0.643538        17.5116   23-Ag
  56   0.0000       0.686580        18.6828   24-Ag
  57   0.0000       0.721099        19.6221   24-Bu
  58   0.0000       0.782820        21.3016   25-Ag
  59   0.0000       0.798012        21.7150   25-Bu

                    ********************************
                    * MULLIKEN POPULATION ANALYSIS *
                    ********************************

-----------------------
MULLIKEN ATOMIC CHARGES
-----------------------
   0 C :   -0.004552
   1 C :   -0.004552
   2 C :   -0.076425
   3 C :   -0.076425
   4 C :   -0.076783
   5 C :   -0.076783
   6 H :    0.077726
   7 H :    0.077726
   8 H :    0.079057
   9 H :    0.079057
  10 C :   -0.075911
  11 C :   -0.075911
  12 H :    0.076400
  13 H :    0.076400
  14 C :   -0.154405
  15 C :   -0.154405
  16 H :    0.075863
  17 H :    0.075863
  18 H :    0.079029
  19 H :    0.079029
Sum of atomic charges:    0.0000000

--------------------------------
MULLIKEN REDUCED ORBITAL CHARGES
--------------------------------
  0 C s       :     3.136843  s :     3.136843
      pz      :     0.993448  p :     2.867709
      px      :     0.929543
      py      :     0.944718
  1 C s       :     3.136843  s :     3.136843
      pz      :     0.993448  p :     2.867709
      px      :     0.929543
      py      :     0.944718
  2 C s       :     3.150887  s :     3.150887
      pz      :     1.001357  p :     2.925538
      px      :     0.950879
      py      :     0.973302
  3 C s       :     3.150887  s :     3.150887
      pz      :     1.001357  p :     2.925538
      px      :     0.950879
      py      :     0.973302
  4 C s       :     3.148672  s :     3.148672
      pz      :     1.000908  p :     2.928110
      px      :     0.961693
      py      :     0.965509
  5 C s       :     3.148672  s :     3.148672
      pz      :     1.000908  p :     2.928110
      px      :     0.961693
      py      :     0.965509
  6 H s       :     0.922274  s :     0.922274
  7 H s       :     0.922274  s :     0.922274
  8 H s       :     0.920943  s :     0.920943
  9 H s       :     0.920943  s :     0.920943
 10 C s       :     3.153791  s :     3.153791
      pz      :     0.997853  p :     2.922120
      px      :     0.935546
      py      :     0.988720
 11 C s       :     3.153791  s :     3.153791
      pz      :     0.997853  p :     2.922120
      px      :     0.935546
      py      :     0.988720
 12 H s       :     0.923600  s :     0.923600
 13 H s       :     0.923600  s :     0.923600
 14 C s       :     3.168880  s :     3.168880
      pz      :     1.006434  p :     2.985525
      px      :     0.987914
      py      :     0.991177
 15 C s       :     3.168880  s :     3.168880
      pz      :     1.006434  p :     2.985525
      px      :     0.987914
      py      :     0.991177
 16 H s       :     0.924137  s :     0.924137
 17 H s       :     0.924137  s :     0.924137
 18 H s       :     0.920971  s :     0.920971
 19 H s       :     0.920971  s :     0.920971


                     *******************************
                     * LOEWDIN POPULATION ANALYSIS *
                     *******************************

----------------------
LOEWDIN ATOMIC CHARGES
----------------------
   0 C :    0.003611
   1 C :    0.003611
   2 C :   -0.043710
   3 C :   -0.043710
   4 C :   -0.043955
   5 C :   -0.043955
   6 H :    0.042024
   7 H :    0.042024
   8 H :    0.043559
   9 H :    0.043559
  10 C :   -0.038644
  11 C :   -0.038644
  12 H :    0.040829
  13 H :    0.040829
  14 C :   -0.091412
  15 C :   -0.091412
  16 H :    0.042853
  17 H :    0.042853
  18 H :    0.044845
  19 H :    0.044845

-------------------------------
LOEWDIN REDUCED ORBITAL CHARGES
-------------------------------
  0 C s       :     3.032321  s :     3.032321
      pz      :     0.992537  p :     2.964068
      px      :     0.975501
      py      :     0.996030
  1 C s       :     3.032321  s :     3.032321
      pz      :     0.992537  p :     2.964068
      px      :     0.975501
      py      :     0.996030
  2 C s       :     3.031753  s :     3.031753
      pz      :     1.001670  p :     3.011957
      px      :     1.003515
      py      :     1.006772
  3 C s       :     3.031753  s :     3.031753
      pz      :     1.001670  p :     3.011957
      px      :     1.003515
      py      :     1.006772
  4 C s       :     3.029414  s :     3.029414
      pz      :     1.001315  p :     3.014542
      px      :     1.007436
      py      :     1.005790
  5 C s       :     3.029414  s :     3.029414
      pz      :     1.001315  p :     3.014542
      px      :     1.007436
      py      :     1.005790
  6 H s       :     0.957976  s :     0.957976
  7 H s       :     0.957976  s :     0.957976
  8 H s       :     0.956441  s :     0.956441
  9 H s       :     0.956441  s :     0.956441
 10 C s       :     3.033499  s :     3.033499
      pz      :     0.997234  p :     3.005145
      px      :     0.986316
      py      :     1.021594
 11 C s       :     3.033499  s :     3.033499
      pz      :     0.997234  p :     3.005145
      px      :     0.986316
      py      :     1.021594
 12 H s       :     0.959171  s :     0.959171
 13 H s       :     0.959171  s :     0.959171
 14 C s       :     3.033093  s :     3.033093
      pz      :     1.007244  p :     3.058319
      px      :     1.025342
      py      :     1.025733
 15 C s       :     3.033093  s :     3.033093
      pz      :     1.007244  p :     3.058319
      px      :     1.025342
      py      :     1.025733
 16 H s       :     0.957147  s :     0.957147
 17 H s       :     0.957147  s :     0.957147
 18 H s       :     0.955155  s :     0.955155
 19 H s       :     0.955155  s :     0.955155


                      *****************************
                      * MAYER POPULATION ANALYSIS *
                      *****************************

  NA   - Mulliken gross atomic population
  ZA   - Total nuclear charge
  QA   - Mulliken gross atomic charge
  VA   - Mayer's total valence
  BVA  - Mayer's bonded valence
  FA   - Mayer's free valence

  ATOM       NA         ZA         QA         VA         BVA        FA
  0 C      6.0046     6.0000    -0.0046     3.9731     3.9731    -0.0000
  1 C      6.0046     6.0000    -0.0046     3.9731     3.9731    -0.0000
  2 C      6.0764     6.0000    -0.0764     3.9693     3.9693    -0.0000
  3 C      6.0764     6.0000    -0.0764     3.9693     3.9693    -0.0000
  4 C      6.0768     6.0000    -0.0768     3.9701     3.9701     0.0000
  5 C      6.0768     6.0000    -0.0768     3.9701     3.9701     0.0000
  6 H      0.9223     1.0000     0.0777     0.9940     0.9940    -0.0000
  7 H      0.9223     1.0000     0.0777     0.9940     0.9940     0.0000
  8 H      0.9209     1.0000     0.0791     0.9937     0.9937     0.0000
  9 H      0.9209     1.0000     0.0791     0.9937     0.9937     0.0000
 10 C      6.0759     6.0000    -0.0759     3.9681     3.9681     0.0000
 11 C      6.0759     6.0000    -0.0759     3.9681     3.9681     0.0000
 12 H      0.9236     1.0000     0.0764     0.9942     0.9942     0.0000
 13 H      0.9236     1.0000     0.0764     0.9942     0.9942     0.0000
 14 C      6.1544     6.0000    -0.1544     3.9649     3.9649     0.0000
 15 C      6.1544     6.0000    -0.1544     3.9649     3.9649     0.0000
 16 H      0.9241     1.0000     0.0759     0.9942     0.9942     0.0000
 17 H      0.9241     1.0000     0.0759     0.9942     0.9942     0.0000
 18 H      0.9210     1.0000     0.0790     0.9938     0.9938     0.0000
 19 H      0.9210     1.0000     0.0790     0.9938     0.9938    -0.0000

  Mayer bond orders larger than 0.100000
B(  0-C ,  2-C ) :   1.3631 B(  0-C ,  5-C ) :   1.3652 B(  0-C , 11-C ) :   1.0664 
B(  1-C ,  3-C ) :   1.3631 B(  1-C ,  4-C ) :   1.3652 B(  1-C , 10-C ) :   1.0664 
B(  2-C ,  4-C ) :   1.4652 B(  2-C ,  6-H ) :   0.9614 B(  3-C ,  5-C ) :   1.4652 
B(  3-C ,  7-H ) :   0.9614 B(  4-C ,  5-C ) :   0.1022 B(  4-C ,  8-H ) :   0.9595 
B(  5-C ,  9-H ) :   0.9595 B( 10-C , 12-H ) :   0.9592 B( 10-C , 14-C ) :   1.9013 
B( 11-C , 13-H ) :   0.9592 B( 11-C , 15-C ) :   1.9013 B( 14-C , 16-H ) :   0.9664 
B( 14-C , 18-H ) :   0.9693 B( 15-C , 17-H ) :   0.9664 B( 15-C , 19-H ) :   0.9693 


-------
TIMINGS
-------

Total SCF time: 0 days 0 hours 0 min 21 sec 

Total time                  ....      21.792 sec
Sum of individual times     ....      21.642 sec  ( 99.3%)

Fock matrix formation       ....      19.259 sec  ( 88.4%)
  Split-RI-J                ....       1.855 sec  (  9.6% of F)
  Chain of spheres X        ....      14.459 sec  ( 75.1% of F)
  XC integration            ....       2.862 sec  ( 14.9% of F)
    Basis function eval.    ....       1.347 sec  ( 47.1% of XC)
    Density eval.           ....       0.595 sec  ( 20.8% of XC)
    XC-Functional eval.     ....       0.413 sec  ( 14.4% of XC)
    XC-Potential eval.      ....       0.237 sec  (  8.3% of XC)
Diagonalization             ....       0.057 sec  (  0.3%)
Density matrix formation    ....       0.001 sec  (  0.0%)
Population analysis         ....       0.010 sec  (  0.0%)
Initial guess               ....       0.140 sec  (  0.6%)
Orbital Transformation      ....       0.000 sec  (  0.0%)
Orbital Orthonormalization  ....       0.000 sec  (  0.0%)
DIIS solution               ....       0.145 sec  (  0.7%)
SOSCF solution              ....       0.030 sec  (  0.1%)
Grid generation             ....       2.000 sec  (  9.2%)

Maximum memory used throughout the entire SCF-calculation: 50.1 MB

-------------------------   --------------------
FINAL SINGLE POINT ENERGY      -382.055108614160
-------------------------   --------------------


                            ***************************************
                            *     ORCA property calculations      *
                            ***************************************

                                    ---------------------
                                    Active property flags
                                    ---------------------
   (+) Dipole Moment


------------------------------------------------------------------------------
                       ORCA ELECTRIC PROPERTIES CALCULATION
------------------------------------------------------------------------------

Dipole Moment Calculation                       ... on
Quadrupole Moment Calculation                   ... off
Polarizability Calculation                      ... off
GBWName                                         ... dvb_ir.gbw
Electron density                                ... dvb_ir.scfp
The origin for moment calculation is the CENTER OF MASS  = ( 0.000000,  0.000000  0.000000)

-------------
DIPOLE MOMENT
-------------
                                X             Y             Z
Electronic contribution:     -0.00000      -0.00000       0.00000
Nuclear contribution   :      0.00000       0.00000       0.00000
                        -----------------------------------------
Total Dipole Moment    :     -0.00000      -0.00000       0.00000
                        -----------------------------------------
Magnitude (a.u.)       :      0.00000
Magnitude (Debye)      :      0.00000



--------------------
Rotational spectrum 
--------------------
 
Rotational constants in cm-1:     0.153923     0.022856     0.019901 
Rotational constants in MHz :  4614.497946   685.205544   596.614430 

 Dipole components along the rotational axes: 
x,y,z [a.u.] :     0.000000    -0.000000     0.000000 
x,y,z [Debye]:     0.000000    -0.000000     0.000000 

 


           ************************************************************
           *        Program running with 2 parallel MPI-processes     *
           *              working on a common directory               *
           ************************************************************

-------------------------------------------------------------------------------
                               ORCA SCF HESSIAN
-------------------------------------------------------------------------------

Hessian of the Kohn-Sham DFT energy:
Kohn-Sham wavefunction type                      ... RKS
Hartree-Fock exchange scaling                    ...    0.200
Number of operators                              ...    1
Number of atoms                                  ...   20
Basis set dimensions                             ...   60
Integral neglect threshold                       ... 1.0e-10
Integral primitive cutoff                        ... 1.0e-11

Setting up DFT Hessian calculations              ... 

HESS GRID
---------

General Integration Accuracy     IntAcc      ... 4.629
Radial Grid Type                 RadialGrid  ... OptM3 with GC (2021)
Angular Grid (max. ang.)         AngularGrid ... 5 (Lebedev-434)
Angular grid pruning method      GridPruning ... 4 (adaptive)
Weight generation scheme         WeightScheme... Becke
Basis function cutoff            BFCut       ... 1.0000e-10
Integration weight cutoff        WCut        ... 1.0000e-14
Angular grids for H and He will be reduced by one unit
Partially contracted basis set               ... off
Rotationally invariant grid construction     ... off

Total number of grid points                  ...   143308
Total number of batches                      ...     2252
Average number of points per batch           ...       63
Average number of grid points per atom       ...     7165

Building densities                               ... done   (      0.0 sec)
Calculating rho(r) on the grid                   ... done   (      0.4 sec)
Building xc-kernel on the grid                   ... done   (      0.2 sec)
                                                     done   (      3.1 sec)

Nuclear repulsion Hessian  (SHARK)               ... done   (      0.0 sec)

----------------------------------------------
Forming right-hand sides of CP-SCF equations     ...
----------------------------------------------
One electron integral derivatives  (SHARK)       ... done   (      0.1 sec)
Transforming the overlap derivative matrices     ... done   (      0.0 sec)
Making the Q(x) pseudodensities                  ... done   (      0.0 sec)
Adding the E*S(x)*S(y) terms to the Hessian      ... done   (      0.0 sec)
Calculating energy weighted overlap derivatives  ... done   (      0.0 sec)
Two electron integral derivatives (SHARK-RI)     ... done   (      4.7 sec)
Exchange-correlation integral derivatives        ... done   (     16.6 sec)
tr(F(y)Q(x)) contribution to the Hessian         ... done   (      0.0 sec)
Response fock operator R(S(x)) (SHARK-RIJCOSX)   ... done   (      5.3 sec)
XC Response fock operator R(S(x))                ... done   (      7.9 sec)
tr(F(y)S(x)) contribution to the Hessian         ... done   (      0.0 sec)
Transforming and finalizing RHSs                 ... done   (      0.0 sec)

----------------------------------------------
Solving the CP-SCF equations (RIJCOSX)           ...
----------------------------------------------
     CP-SCF ITERATION   0:   1.6820e-01 (   3.1 sec   0/ 60 done)
     CP-SCF ITERATION   1:   2.4759e-02 (   2.8 sec  10/ 60 done)
     CP-SCF ITERATION   2:   1.2447e-02 (   3.1 sec  20/ 60 done)
     CP-SCF ITERATION   3:   2.7773e-03 (   2.5 sec  42/ 60 done)
     CP-SCF ITERATION   4:   7.6789e-04 (   1.7 sec  60/ 60 done)
                    *** THE CP-SCF HAS CONVERGED ***

                                                 ... done   (     13.5 sec)
Forming perturbed density Hessian contributions  ... done   (      0.0 sec)
2nd integral derivative contribs (SHARK-RI)      ... done   (     18.1 sec)
Exchange-correlation Hessian                     ... done   (     42.9 sec)
Dipole derivatives                               ... done   (      0.8 sec)

Total SCF Hessian time: 0 days 0 hours 1 min 53 sec 

Writing the Hessian file to the disk             ... done


Maximum memory used throughout the entire SCFHESS-calculation: 66.9 MB

-----------------------
VIBRATIONAL FREQUENCIES
-----------------------

Scaling factor for frequencies =  1.000000000  (already applied!)

   0:         0.00 cm**-1
   1:         0.00 cm**-1
   2:         0.00 cm**-1
   3:         0.00 cm**-1
   4:         0.00 cm**-1
   5:         0.00 cm**-1
   6:        45.66 cm**-1
   7:        78.63 cm**-1
   8:       150.50 cm**-1
   9:       180.08 cm**-1
  10:       264.92 cm**-1
  11:       300.71 cm**-1
  12:       407.72 cm**-1
  13:       423.71 cm**-1
  14:       468.20 cm**-1
  15:       487.66 cm**-1
  16:       578.55 cm**-1
  17:       656.89 cm**-1
  18:       673.30 cm**-1
  19:       706.40 cm**-1
  20:       734.92 cm**-1
  21:       809.69 cm**-1
  22:       862.11 cm**-1
  23:       892.45 cm**-1
  24:       895.23 cm**-1
  25:       979.16 cm**-1
  26:       979.28 cm**-1
  27:      1016.68 cm**-1
  28:      1035.18 cm**-1
  29:      1073.47 cm**-1
  30:      1101.53 cm**-1
  31:      1106.25 cm**-1
  32:      1106.39 cm**-1
  33:      1110.14 cm**-1
  34:      1203.16 cm**-1
  35:      1260.29 cm**-1
  36:      1284.00 cm**-1
  37:      1295.87 cm**-1
  38:      1349.73 cm**-1
  39:      1397.98 cm**-1
  40:      1421.49 cm**-1
  41:      1426.84 cm**-1
  42:      1514.00 cm**-1
  43:      1564.86 cm**-1
  44:      1574.55 cm**-1
  45:      1639.04 cm**-1
  46:      1690.25 cm**-1
  47:      1737.84 cm**-1
  48:      1814.26 cm**-1
  49:      1815.24 cm**-1
  50:      3393.77 cm**-1
  51:      3394.38 cm**-1
  52:      3432.49 cm**-1
  53:      3432.49 cm**-1
  54:      3447.31 cm**-1
  55:      3450.87 cm**-1
  56:      3470.69 cm**-1
  57:      3473.86 cm**-1
  58:      3545.99 cm**-1
  59:      3546.00 cm**-1


------------
NORMAL MODES
------------

These modes are the Cartesian displacements weighted by the diagonal matrix
M(i,i)=1/sqrt(m[i]) where m[i] is the mass of the displaced atom
Thus, these vectors are normalized but *not* orthogonal

                  0          1          2          3          4          5    
      0       0.000000   0.000000   0.000000   0.000000   0.000000   0.000000
      1       0.000000   0.000000   0.000000   0.000000   0.000000   0.000000
      2       0.000000   0.000000   0.000000   0.000000   0.000000   0.000000
      3       0.000000   0.000000   0.000000   0.000000   0.000000   0.000000
      4       0.000000   0.000000   0.000000   0.000000   0.000000   0.000000
      5       0.000000   0.000000   0.000000   0.000000   0.000000   0.000000
      6       0.000000   0.000000   0.000000   0.000000   0.000000   0.000000
      7       0.000000   0.000000   0.000000   0.000000   0.000000   0.000000
      8       0.000000   0.000000   0.000000   0.000000   0.000000   0.000000
      9       0.000000   0.000000   0.000000   0.000000   0.000000   0.000000
     10       0.000000   0.000000   0.000000   0.000000   0.000000   0.000000
     11       0.000000   0.000000   0.000000   0.000000   0.000000   0.000000
     12       0.000000   0.000000   0.000000   0.000000   0.000000   0.000000
     13       0.000000   0.000000   0.000000   0.000000   0.000000   0.000000
     14       0.000000   0.000000   0.000000   0.000000   0.000000   0.000000
     15       0.000000   0.000000   0.000000   0.000000   0.000000   0.000000
     16       0.000000   0.000000   0.000000   0.000000   0.000000   0.000000
     17       0.000000   0.000000   0.000000   0.000000   0.000000   0.000000
     18       0.000000   0.000000   0.000000   0.000000   0.000000   0.000000
     19       0.000000   0.000000   0.000000   0.000000   0.000000   0.000000
     20       0.000000   0.000000   0.000000   0.000000   0.000000   0.000000
     21       0.000000   0.000000   0.000000   0.000000   0.000000   0.000000
     22       0.000000   0.000000   0.000000   0.000000   0.000000   0.000000
     23       0.000000   0.000000   0.000000   0.000000   0.000000   0.000000
     24       0.000000   0.000000   0.000000   0.000000   0.000000   0.000000
     25       0.000000   0.000000   0.000000   0.000000   0.000000   0.000000
     26       0.000000   0.000000   0.000000   0.000000   0.000000   0.000000
     27       0.000000   0.000000   0.000000   0.000000   0.000000   0.000000
     28       0.000000   0.000000   0.000000   0.000000   0.000000   0.000000
     29       0.000000   0.000000   0.000000   0.000000   0.000000   0.000000
     30       0.000000   0.000000   0.000000   0.000000   0.000000   0.000000
     31       0.000000   0.000000   0.000000   0.000000   0.000000   0.000000
     32       0.000000   0.000000   0.000000   0.000000   0.000000   0.000000
     33       0.000000   0.000000   0.000000   0.000000   0.000000   0.000000
     34       0.000000   0.000000   0.000000   0.000000   0.000000   0.000000
     35       0.000000   0.000000   0.000000   0.000000   0.000000   0.000000
     36       0.000000   0.000000   0.000000   0.000000   0.000000   0.000000
     37       0.000000   0.000000   0.000000   0.000000   0.000000   0.000000
     38       0.000000   0.000000   0.000000   0.000000   0.000000   0.000000
     39       0.000000   0.000000   0.000000   0.000000   0.000000   0.000000
     40       0.000000   0.000000   0.000000   0.000000   0.000000   0.000000
     41       0.000000   0.000000   0.000000   0.000000   0.000000   0.000000
     42       0.000000   0.000000   0.000000   0.000000   0.000000   0.000000
     43       0.000000   0.000000   0.000000   0.000000   0.000000   0.000000
     44       0.000000   0.000000   0.000000   0.000000   0.000000   0.000000
     45       0.000000   0.000000   0.000000   0.000000   0.000000   0.000000
     46       0.000000   0.000000   0.000000   0.000000   0.000000   0.000000
     47       0.000000   0.000000   0.000000   0.000000   0.000000   0.000000
     48       0.000000   0.000000   0.000000   0.000000   0.000000   0.000000
     49       0.000000   0.000000   0.000000   0.000000   0.000000   0.000000
     50       0.000000   0.000000   0.000000   0.000000   0.000000   0.000000
     51       0.000000   0.000000   0.000000   0.000000   0.000000   0.000000
     52       0.000000   0.000000   0.000000   0.000000   0.000000   0.000000
     53       0.000000   0.000000   0.000000   0.000000   0.000000   0.000000
     54       0.000000   0.000000   0.000000   0.000000   0.000000   0.000000
     55       0.000000   0.000000   0.000000   0.000000   0.000000   0.000000
     56       0.000000   0.000000   0.000000   0.000000   0.000000   0.000000
     57       0.000000   0.000000   0.000000   0.000000   0.000000   0.000000
     58       0.000000   0.000000   0.000000   0.000000   0.000000   0.000000
     59       0.000000   0.000000   0.000000   0.000000   0.000000   0.000000
                  6          7          8          9         10         11    
      0       0.000000   0.000000  -0.000000   0.020034   0.042817   0.000000
      1       0.000000  -0.000000   0.000000  -0.104462   0.120984   0.000000
      2      -0.078644   0.085575  -0.031083  -0.000000  -0.000000   0.182244
      3      -0.000000   0.000000  -0.000000   0.020034  -0.042817  -0.000000
      4      -0.000000  -0.000000   0.000000  -0.104462  -0.120984  -0.000000
      5      -0.078644  -0.085575  -0.031083   0.000000   0.000000  -0.182244
      6       0.000000   0.000000  -0.000000   0.025822   0.099169   0.000000
      7       0.000000  -0.000000   0.000000  -0.113956   0.064452   0.000000
      8      -0.100143  -0.041751  -0.083996  -0.000000  -0.000000   0.120065
      9       0.000000   0.000000  -0.000000   0.025822  -0.099169  -0.000000
     10      -0.000000  -0.000000   0.000000  -0.113956  -0.064452  -0.000000
     11      -0.100143   0.041751  -0.083996  -0.000000   0.000000  -0.120065
     12       0.000000   0.000000  -0.000000   0.012531   0.067476   0.000000
     13      -0.000000  -0.000000   0.000000  -0.112211  -0.080838  -0.000000
     14      -0.092968  -0.132156  -0.096959   0.000000   0.000000  -0.099113
     15       0.000000   0.000000   0.000000   0.012531  -0.067476  -0.000000
     16      -0.000000  -0.000000   0.000000  -0.112211   0.080838   0.000000
     17      -0.092968   0.132156  -0.096959  -0.000000  -0.000000   0.099113
     18       0.000000   0.000000  -0.000000   0.026254   0.187097   0.000000
     19       0.000000  -0.000000   0.000000  -0.114757   0.097021   0.000000
     20      -0.108664  -0.082994  -0.064886   0.000000   0.000000   0.183340
     21       0.000000  -0.000000  -0.000000   0.026254  -0.187097  -0.000000
     22      -0.000000  -0.000000   0.000000  -0.114757  -0.097021  -0.000000
     23      -0.108664   0.082994  -0.064886  -0.000000   0.000000  -0.183340
     24       0.000000   0.000000  -0.000000   0.005281   0.146555  -0.000000
     25      -0.000000  -0.000000   0.000000  -0.109345  -0.148424   0.000000
     26      -0.100701  -0.249181  -0.085081   0.000000  -0.000000  -0.127922
     27       0.000000  -0.000000   0.000000   0.005281  -0.146555  -0.000000
     28      -0.000000  -0.000000   0.000000  -0.109345   0.148424   0.000000
     29      -0.100701   0.249181  -0.085081  -0.000000  -0.000000   0.127922
     30      -0.000000   0.000000  -0.000000   0.052748  -0.042171  -0.000000
     31      -0.000000   0.000000  -0.000000   0.056488  -0.054815  -0.000000
     32      -0.026341  -0.138829   0.183821   0.000000   0.000000   0.055134
     33       0.000000   0.000000  -0.000000   0.052748   0.042171   0.000000
     34       0.000000   0.000000  -0.000000   0.056488   0.054815   0.000000
     35      -0.026342   0.138829   0.183821   0.000000   0.000000  -0.055134
     36       0.000000   0.000000  -0.000000   0.217518   0.087467   0.000000
     37       0.000000   0.000000  -0.000000   0.095917  -0.022889  -0.000000
     38      -0.218466  -0.394060   0.518764   0.000000   0.000000   0.397728
     39       0.000000   0.000000  -0.000000   0.217518  -0.087467  -0.000000
     40       0.000000   0.000000  -0.000000   0.095917   0.022889  -0.000000
     41      -0.218467   0.394060   0.518764   0.000000   0.000000  -0.397728
     42      -0.000000  -0.000000   0.000000  -0.103453  -0.201665  -0.000000
     43       0.000000   0.000000  -0.000000   0.232492   0.118758   0.000000
     44       0.267468   0.146787   0.008846  -0.000000  -0.000000   0.031708
     45       0.000000  -0.000000   0.000000  -0.103453   0.201665   0.000000
     46      -0.000000   0.000000  -0.000000   0.232492  -0.118757  -0.000000
     47       0.267468  -0.146786   0.008846   0.000000   0.000000  -0.031708
     48      -0.000000  -0.000000   0.000000  -0.293920  -0.409144  -0.000000
     49       0.000000   0.000000  -0.000000   0.198960   0.081307   0.000000
     50       0.493789   0.445317  -0.350614  -0.000000  -0.000000  -0.319571
     51       0.000000  -0.000000   0.000000  -0.293920   0.409144   0.000000
     52       0.000000   0.000000  -0.000000   0.198960  -0.081307  -0.000000
     53       0.493790  -0.445316  -0.350614   0.000000  -0.000000   0.319571
     54      -0.000000  -0.000000   0.000000  -0.046660  -0.140332  -0.000000
     55       0.000000   0.000000  -0.000000   0.425499   0.330295   0.000000
     56       0.299009   0.100398   0.212636   0.000000  -0.000000   0.358067
     57       0.000000  -0.000000  -0.000000  -0.046660   0.140332   0.000000
     58       0.000000   0.000000  -0.000000   0.425499  -0.330295  -0.000000
     59       0.299009  -0.100397   0.212636   0.000000   0.000000  -0.358067
                 12         13         14         15         16         17    
      0       0.134520  -0.000000   0.000000  -0.059721   0.115926   0.000000
      1      -0.135698   0.000000   0.000000  -0.041910   0.064473   0.000000
      2      -0.000000  -0.018726  -0.197827  -0.000000  -0.000000   0.039283
      3      -0.134520   0.000000   0.000000  -0.059721  -0.115926  -0.000000
      4       0.135698  -0.000000   0.000000  -0.041910  -0.064473  -0.000000
      5      -0.000000  -0.018726  -0.197827  -0.000000  -0.000000  -0.039283
      6      -0.052325   0.000000   0.000000  -0.085664   0.063692  -0.000000
      7      -0.005569   0.000000  -0.000000  -0.075731   0.133708   0.000000
      8      -0.000000  -0.210246   0.092615   0.000000   0.000000  -0.117974
      9       0.052325  -0.000000   0.000000  -0.085664  -0.063692   0.000000
     10       0.005569  -0.000000   0.000000  -0.075731  -0.133708  -0.000000
     11      -0.000000  -0.210246   0.092615   0.000000   0.000000   0.117974
     12      -0.064711   0.000000   0.000000  -0.102184   0.021875  -0.000000
     13       0.153711  -0.000000   0.000000  -0.077785  -0.023441  -0.000000
     14       0.000000   0.217220   0.059886   0.000000  -0.000000   0.113278
     15       0.064711  -0.000000   0.000000  -0.102184  -0.021875   0.000000
     16      -0.153711   0.000000   0.000000  -0.077785   0.023441   0.000000
     17       0.000000   0.217221   0.059886   0.000000   0.000000  -0.113278
     18      -0.252854   0.000000   0.000000  -0.097438   0.086407  -0.000000
     19      -0.083776   0.000000   0.000000  -0.083284   0.143381   0.000000
     20      -0.000000  -0.404659   0.340562   0.000000   0.000000  -0.161208
     21       0.252854  -0.000000   0.000000  -0.097438  -0.086407  -0.000000
     22       0.083776  -0.000000   0.000000  -0.083284  -0.143381  -0.000000
     23      -0.000000  -0.404659   0.340562   0.000000   0.000000   0.161208
     24      -0.072750   0.000000   0.000000  -0.099954   0.186080  -0.000000
     25       0.158114  -0.000000   0.000000  -0.079942  -0.157405   0.000000
     26       0.000000   0.489382   0.287761   0.000000  -0.000000   0.194028
     27       0.072750  -0.000000   0.000000  -0.099954  -0.186080  -0.000000
     28      -0.158114   0.000000   0.000000  -0.079942   0.157405   0.000000
     29       0.000000   0.489382   0.287761   0.000000   0.000000  -0.194028
     30      -0.242187   0.000000   0.000000   0.024458  -0.094325   0.000000
     31      -0.006419   0.000000  -0.000000   0.175601   0.171377  -0.000000
     32       0.000000   0.004482  -0.063858  -0.000000  -0.000000  -0.138796
     33       0.242187  -0.000000  -0.000000   0.024458   0.094325   0.000000
     34       0.006419  -0.000000  -0.000000   0.175601  -0.171377  -0.000000
     35       0.000000   0.004482  -0.063858  -0.000000  -0.000000   0.138796
     36      -0.356560   0.000000  -0.000000   0.052258  -0.050852   0.000000
     37      -0.029354   0.000000  -0.000000   0.178706   0.181449   0.000000
     38       0.000000   0.024052   0.204541   0.000000  -0.000000   0.187423
     39       0.356560  -0.000000  -0.000000   0.052258   0.050852   0.000000
     40       0.029354  -0.000000  -0.000000   0.178706  -0.181449  -0.000000
     41       0.000000   0.024052   0.204541   0.000000   0.000000  -0.187423
     42      -0.198172   0.000000  -0.000000   0.185229   0.058864   0.000000
     43      -0.086728   0.000000  -0.000000   0.032956   0.022315  -0.000000
     44      -0.000000  -0.001359   0.027867   0.000000  -0.000000   0.023251
     45       0.198172  -0.000000  -0.000000   0.185229  -0.058864   0.000000
     46       0.086728  -0.000000  -0.000000   0.032956  -0.022315  -0.000000
     47      -0.000000  -0.001359   0.027867   0.000000   0.000000  -0.023251
     48      -0.144628   0.000000  -0.000000   0.494379   0.425268   0.000000
     49      -0.079506   0.000000  -0.000000   0.088915   0.086061   0.000000
     50      -0.000000  -0.049879  -0.243376  -0.000000   0.000000  -0.299438
     51       0.144628  -0.000000  -0.000000   0.494379  -0.425268  -0.000000
     52       0.079506  -0.000000  -0.000000   0.088915  -0.086061  -0.000000
     53      -0.000000  -0.049879  -0.243375  -0.000000  -0.000000   0.299438
     54      -0.219852   0.000000  -0.000000   0.102140  -0.041156   0.000000
     55      -0.150336   0.000000   0.000000  -0.260870  -0.322990  -0.000000
     56       0.000000   0.043917   0.379459   0.000000  -0.000000   0.513300
     57       0.219852  -0.000000  -0.000000   0.102140   0.041156   0.000000
     58       0.150336  -0.000000   0.000000  -0.260870   0.322990   0.000000
     59       0.000000   0.043917   0.379459   0.000000   0.000000  -0.513300
                 18         19         20         21         22         23    
      0      -0.001232   0.000000  -0.018005  -0.000000  -0.076547   0.000000
      1       0.106122  -0.000000   0.002765   0.000000   0.015196  -0.000000
      2      -0.000000   0.083282   0.000000  -0.258660  -0.000000   0.002322
      3       0.001232   0.000000  -0.018005   0.000000   0.076547  -0.000000
      4      -0.106122   0.000000   0.002765   0.000000  -0.015196   0.000000
      5       0.000000   0.083282  -0.000000   0.258660  -0.000000  -0.002322
      6      -0.260018   0.000000   0.134657   0.000000   0.005067   0.000000
      7       0.232425  -0.000000  -0.067434  -0.000000  -0.244716   0.000000
      8       0.000000   0.016087  -0.000000   0.105741   0.000000   0.071075
      9       0.260018  -0.000000   0.134657   0.000000  -0.005067  -0.000000
     10      -0.232425   0.000000  -0.067434  -0.000000   0.244716  -0.000000
     11      -0.000000   0.016087   0.000000  -0.105741  -0.000000  -0.071075
     12      -0.321475   0.000000   0.131557   0.000000  -0.071320   0.000000
     13      -0.163346   0.000000  -0.024659  -0.000000  -0.248838   0.000000
     14       0.000000   0.020731   0.000000  -0.103058   0.000000   0.078944
     15       0.321475  -0.000000   0.131557   0.000000   0.071320  -0.000000
     16       0.163346  -0.000000  -0.024659  -0.000000   0.248838  -0.000000
     17       0.000000   0.020731  -0.000000   0.103058   0.000000  -0.078944
     18      -0.150531   0.000000   0.225215   0.000000   0.208811   0.000000
     19       0.274898  -0.000000  -0.033215  -0.000000  -0.184166   0.000000
     20      -0.000000  -0.311057   0.000000   0.282062  -0.000000  -0.484382
     21       0.150531  -0.000000   0.225215   0.000000  -0.208811  -0.000000
     22      -0.274898   0.000000  -0.033215   0.000000   0.184166  -0.000000
     23      -0.000000  -0.311057   0.000000  -0.282062  -0.000000   0.484383
     24      -0.250132   0.000000   0.200250   0.000000  -0.212076  -0.000000
     25      -0.221756   0.000000  -0.084916  -0.000000  -0.154382   0.000000
     26      -0.000000  -0.307291   0.000000  -0.281974  -0.000000  -0.503576
     27       0.250132  -0.000000   0.200250   0.000000   0.212076  -0.000000
     28       0.221756  -0.000000  -0.084916  -0.000000   0.154382   0.000000
     29      -0.000000  -0.307291   0.000000   0.281974  -0.000000   0.503577
     30       0.011881  -0.000000  -0.183664  -0.000000  -0.109924  -0.000000
     31      -0.055105   0.000000   0.127540   0.000000   0.077631   0.000000
     32      -0.000000  -0.115734   0.000000  -0.122792   0.000000   0.000618
     33      -0.011881  -0.000000  -0.183664  -0.000000   0.109924  -0.000000
     34       0.055105  -0.000000   0.127540   0.000000  -0.077631  -0.000000
     35      -0.000000  -0.115734   0.000000   0.122792   0.000000  -0.000618
     36       0.001075  -0.000000  -0.189565  -0.000000  -0.115886  -0.000000
[...]
     26       0.000000  -0.000000  -0.000000   0.000000  -0.000000  -0.000000
     27      -0.032087  -0.038329   0.007362   0.005201   0.001399   0.003576
     28       0.013047   0.054597   0.009889   0.007211   0.002008   0.004845
     29      -0.000000   0.000000   0.000000   0.000000  -0.000000   0.000000
     30       0.216774   0.225194  -0.008226   0.008178  -0.010181  -0.010243
     31       0.144635   0.142901   0.011467  -0.011351   0.060275   0.060476
     32      -0.000000   0.000000   0.000000  -0.000000  -0.000000  -0.000000
     33      -0.216774   0.225195  -0.008226  -0.008178  -0.010210   0.010214
     34      -0.144635   0.142901   0.011467   0.011351   0.060448  -0.060303
     35      -0.000000   0.000000   0.000000  -0.000000  -0.000000  -0.000000
     36      -0.284898  -0.275961   0.042239  -0.041833   0.156202   0.156749
     37       0.058926   0.057062  -0.181949   0.179817  -0.658812  -0.661034
     38       0.000000  -0.000000  -0.000000   0.000000   0.000000   0.000000
     39       0.284898  -0.275962   0.042239   0.041834   0.156650  -0.156301
     40      -0.058926   0.057062  -0.181946  -0.179821  -0.660702   0.659144
     41       0.000000  -0.000000   0.000000   0.000000  -0.000000   0.000000
     42      -0.183365  -0.185893   0.036934  -0.036982  -0.010828  -0.010701
     43      -0.154401  -0.155279   0.030552  -0.030536  -0.014705  -0.014649
     44      -0.000000  -0.000000  -0.000000   0.000000   0.000000   0.000000
     45       0.183365  -0.185893   0.036934   0.036982  -0.010859   0.010670
     46       0.154400  -0.155279   0.030551   0.030536  -0.014747   0.014607
     47       0.000000  -0.000000  -0.000000   0.000000  -0.000000   0.000000
     48       0.382261   0.388769   0.084661  -0.084742  -0.030324  -0.030135
     49      -0.094598  -0.094488  -0.462672   0.463221   0.153284   0.152115
     50       0.000000   0.000000   0.000000  -0.000000  -0.000000  -0.000000
     51      -0.382260   0.388770   0.084659   0.084743  -0.030410   0.030048
     52       0.094598  -0.094488  -0.462664  -0.463229   0.153719  -0.151676
     53       0.000000  -0.000000   0.000000   0.000000   0.000000  -0.000000
     54      -0.076331  -0.079250  -0.469302   0.469667   0.101772   0.100245
     55       0.340654   0.339787   0.144638  -0.144859  -0.031293  -0.030803
     56       0.000000  -0.000000   0.000000  -0.000000   0.000000   0.000000
     57       0.076331  -0.079250  -0.469293  -0.469675   0.102059  -0.099953
     58      -0.340653   0.339788   0.144636   0.144861  -0.031381   0.030714
     59      -0.000000   0.000000  -0.000000  -0.000000  -0.000000   0.000000
                 54         55         56         57         58         59    
      0      -0.002242  -0.001663  -0.000004   0.002136  -0.000332  -0.000338
      1      -0.001253  -0.002690  -0.003892  -0.001505  -0.000157  -0.000168
      2       0.000000   0.000000  -0.000000   0.000000  -0.000000  -0.000000
      3      -0.002242   0.001663  -0.000004  -0.002136  -0.000333   0.000338
      4      -0.001253   0.002690  -0.003892   0.001505  -0.000157   0.000168
      5       0.000000   0.000000   0.000000   0.000000   0.000000   0.000000
      6      -0.019000  -0.019360  -0.011871   0.011463   0.000026  -0.000076
      7       0.054040   0.054039   0.023108  -0.023387   0.000032   0.000099
      8       0.000000  -0.000000   0.000000   0.000000   0.000000   0.000000
      9      -0.019000   0.019360  -0.011871  -0.011463   0.000026   0.000076
     10       0.054040  -0.054039   0.023108   0.023387   0.000032  -0.000099
     11      -0.000000  -0.000000   0.000000  -0.000000  -0.000000   0.000000
     12      -0.012281  -0.012426   0.037787  -0.037886  -0.000261   0.000368
     13      -0.019844  -0.019204   0.044458  -0.044824  -0.000327   0.000426
     14      -0.000000   0.000000   0.000000   0.000000  -0.000000   0.000000
     15      -0.012281   0.012426   0.037787   0.037886  -0.000261  -0.000368
     16      -0.019844   0.019204   0.044458   0.044824  -0.000327  -0.000427
     17       0.000000  -0.000000   0.000000  -0.000000   0.000000   0.000000
     18       0.226257   0.226913   0.097124  -0.095562   0.000046   0.000270
     19      -0.607110  -0.607659  -0.255753   0.253439   0.000190  -0.000665
     20      -0.000000  -0.000000  -0.000000  -0.000000   0.000000   0.000000
     21       0.226258  -0.226913   0.097125   0.095562   0.000046  -0.000270
     22      -0.607111   0.607658  -0.255753  -0.253439   0.000190   0.000665
     23      -0.000000   0.000000   0.000000   0.000000   0.000000  -0.000000
     24       0.172252   0.171515  -0.408970   0.409473   0.003678  -0.004666
     25       0.215092   0.212798  -0.503664   0.504652   0.005136  -0.006292
     26       0.000000  -0.000000   0.000000  -0.000000  -0.000000   0.000000
     27       0.172252  -0.171515  -0.408970  -0.409473   0.003674   0.004669
     28       0.215092  -0.212798  -0.503664  -0.504652   0.005131   0.006295
     29       0.000000  -0.000000  -0.000000   0.000000  -0.000000   0.000000
     30       0.000263  -0.000439   0.000154   0.000049   0.000730  -0.000728
     31      -0.001810   0.002208   0.000066  -0.000798  -0.003338   0.003350
     32      -0.000000   0.000000   0.000000  -0.000000  -0.000000  -0.000000
     33       0.000263   0.000439   0.000154  -0.000049   0.000729   0.000728
     34      -0.001810  -0.002208   0.000066   0.000798  -0.003335  -0.003352
     35      -0.000000   0.000000   0.000000  -0.000000  -0.000000  -0.000000
     36      -0.003236   0.005275  -0.001220  -0.000132  -0.007094   0.007117
     37       0.019093  -0.025055   0.002609   0.006341   0.038585  -0.038681
     38       0.000000  -0.000000  -0.000000  -0.000000   0.000000  -0.000000
     39      -0.003236  -0.005275  -0.001220   0.000132  -0.007089  -0.007122
     40       0.019093   0.025055   0.002609  -0.006341   0.038557   0.038709
     41       0.000000  -0.000000  -0.000000   0.000000  -0.000000  -0.000000
     42      -0.000498  -0.000741   0.000970  -0.000940   0.046914  -0.046875
     43       0.000066  -0.000319  -0.000230   0.000430  -0.052992   0.052948
     44       0.000000  -0.000000  -0.000000   0.000000   0.000000  -0.000000
     45      -0.000498   0.000741   0.000970   0.000940   0.046880   0.046909
     46       0.000066   0.000319  -0.000230  -0.000430  -0.052954  -0.052986
     47       0.000000   0.000000   0.000000   0.000000   0.000000   0.000000
     48      -0.000837  -0.001163   0.000939  -0.000475  -0.084773   0.084711
     49       0.003317   0.005362  -0.002970   0.000433   0.493670  -0.493318
     50      -0.000000  -0.000000  -0.000000  -0.000000  -0.000000  -0.000000
     51      -0.000837   0.001163   0.000939   0.000475  -0.084712  -0.084773
     52       0.003317  -0.005362  -0.002970  -0.000433   0.493311   0.493677
     53      -0.000000  -0.000000  -0.000000  -0.000000  -0.000000  -0.000000
     54       0.007824   0.006121  -0.010034   0.010671  -0.472801   0.472422
     55      -0.002143  -0.001971   0.003014  -0.002962   0.139019  -0.138899
     56       0.000000   0.000000  -0.000000  -0.000000   0.000000  -0.000000
     57       0.007824  -0.006121  -0.010034  -0.010671  -0.472457  -0.472766
     58      -0.002143   0.001971   0.003014   0.002962   0.138918   0.139000
     59       0.000000   0.000000  -0.000000   0.000000   0.000000  -0.000000


-----------
IR SPECTRUM
-----------

 Mode   freq       eps      Int      T**2         TX        TY        TZ
       cm**-1   L/(mol*cm) km/mol    a.u.
----------------------------------------------------------------------------
  6:     45.66   0.000006    0.03  0.000039  ( 0.000000  0.000000  0.006256)
  7:     78.63   0.000000    0.00  0.000000  ( 0.000000  0.000000  0.000000)
  8:    150.50   0.000071    0.36  0.000147  ( 0.000000 -0.000000  0.012121)
  9:    180.08   0.000052    0.26  0.000090  ( 0.008755  0.003626  0.000000)
 10:    264.92   0.000000    0.00  0.000000  ( 0.000000  0.000000  0.000000)
 11:    300.71   0.000000    0.00  0.000000  ( 0.000000  0.000000 -0.000000)
 12:    407.72   0.000000    0.00  0.000000  ( 0.000000  0.000000  0.000000)
 13:    423.71   0.000021    0.10  0.000015  ( 0.000000 -0.000000  0.003907)
 14:    468.20   0.001213    6.13  0.000808  ( 0.000000 -0.000000  0.028428)
 15:    487.66   0.000385    1.95  0.000247  (-0.015616 -0.001633  0.000000)
 16:    578.55   0.000000    0.00  0.000000  (-0.000000 -0.000000  0.000000)
 17:    656.89   0.000000    0.00  0.000000  ( 0.000000  0.000000 -0.000000)
 18:    673.30   0.000000    0.00  0.000000  (-0.000000 -0.000000 -0.000000)
 19:    706.40   0.000103    0.52  0.000045  (-0.000000  0.000000 -0.006730)
 20:    734.92   0.000828    4.19  0.000352  (-0.018691 -0.001547  0.000000)
 21:    809.69   0.000000    0.00  0.000000  (-0.000000  0.000000 -0.000000)
 22:    862.11   0.000000    0.00  0.000000  (-0.000000 -0.000000 -0.000000)
 23:    892.45   0.000000    0.00  0.000000  ( 0.000000 -0.000000  0.000000)
 24:    895.23   0.005321   26.89  0.001855  (-0.000000  0.000000 -0.043069)
 25:    979.16   0.000000    0.00  0.000000  (-0.000000 -0.000000  0.000000)
 26:    979.28   0.007275   36.76  0.002318  ( 0.000000 -0.000000 -0.048149)
 27:   1016.68   0.000000    0.00  0.000000  ( 0.000000 -0.000000 -0.000000)
 28:   1035.18   0.000001    0.01  0.000000  (-0.000000  0.000000 -0.000588)
 29:   1073.47   0.000106    0.54  0.000031  (-0.005517 -0.000719 -0.000000)
 30:   1101.53   0.001739    8.79  0.000493  (-0.022139  0.001615  0.000000)
 31:   1106.25   0.002667   13.48  0.000752  (-0.000000  0.000000 -0.027427)
 32:   1106.39   0.000000    0.00  0.000000  ( 0.000000 -0.000000 -0.000000)
 33:   1110.14   0.000000    0.00  0.000000  (-0.000000  0.000000 -0.000000)
 34:   1203.16   0.000294    1.49  0.000076  (-0.007751 -0.004024 -0.000000)
 35:   1260.29   0.000000    0.00  0.000000  ( 0.000000 -0.000000  0.000000)
 36:   1284.00   0.000012    0.06  0.000003  ( 0.001404 -0.001005  0.000000)
 37:   1295.87   0.000000    0.00  0.000000  ( 0.000000  0.000000  0.000000)
 38:   1349.73   0.001769    8.94  0.000409  ( 0.020112 -0.002100 -0.000000)
 39:   1397.98   0.000000    0.00  0.000000  ( 0.000000  0.000000  0.000000)
 40:   1421.49   0.001700    8.59  0.000373  (-0.018946 -0.003767 -0.000000)
 41:   1426.84   0.000000    0.00  0.000000  ( 0.000000 -0.000000  0.000000)
 42:   1514.00   0.003691   18.65  0.000761  ( 0.007049 -0.026666 -0.000000)
 43:   1564.86   0.000000    0.00  0.000000  (-0.000000  0.000000  0.000000)
 44:   1574.55   0.000126    0.64  0.000025  ( 0.003710 -0.003343  0.000000)
 45:   1639.04   0.002998   15.15  0.000571  (-0.023837 -0.001619  0.000000)
 46:   1690.25   0.000000    0.00  0.000000  (-0.000000  0.000000 -0.000000)
 47:   1737.84   0.000000    0.00  0.000000  ( 0.000000 -0.000000  0.000000)
 48:   1814.26   0.000000    0.00  0.000000  (-0.000000  0.000000  0.000000)
 49:   1815.24   0.000290    1.47  0.000050  (-0.000253  0.007061  0.000000)
 50:   3393.77   0.019172   96.88  0.001763  (-0.040830 -0.009786  0.000000)
 51:   3394.38   0.000000    0.00  0.000000  (-0.000000 -0.000000  0.000000)
 52:   3432.49   0.000785    3.97  0.000071  (-0.008316 -0.001481 -0.000000)
 53:   3432.49   0.000000    0.00  0.000000  (-0.000012 -0.000002 -0.000000)
 54:   3447.31   0.000242    1.22  0.000022  ( 0.000621 -0.004639 -0.000000)
 55:   3450.87   0.000000    0.00  0.000000  ( 0.000000 -0.000000  0.000000)
 56:   3470.69   0.001109    5.61  0.000100  (-0.002835 -0.009576  0.000000)
 57:   3473.86   0.000000    0.00  0.000000  ( 0.000000  0.000000 -0.000000)
 58:   3545.99   0.000009    0.04  0.000001  ( 0.000862  0.000154 -0.000000)
 59:   3546.00   0.000000    0.00  0.000000  ( 0.000000  0.000000  0.000000)

* The epsilon (eps) is given for a Dirac delta lineshape.
** The dipole moment derivative (T) already includes vibrational overlap.

The first frequency considered to be a vibration is 6
The total number of vibrations considered is 54


--------------------------
THERMOCHEMISTRY AT 298.15K
--------------------------

Temperature         ... 298.15 K
Pressure            ... 1.00 atm
Total Mass          ... 130.19 AMU

Throughout the following assumptions are being made:
  (1) The electronic state is orbitally nondegenerate
  (2) There are no thermally accessible electronically excited states
  (3) Hindered rotations indicated by low frequency modes are not
      treated as such but are treated as vibrations and this may
      cause some error
  (4) All equations used are the standard statistical mechanics
      equations for an ideal gas
  (5) All vibrations are strictly harmonic

freq.      45.66  E(vib)   ...       0.53 
freq.      78.63  E(vib)   ...       0.49 
freq.     150.50  E(vib)   ...       0.40 
freq.     180.08  E(vib)   ...       0.37 
freq.     264.92  E(vib)   ...       0.29 
freq.     300.71  E(vib)   ...       0.26 
freq.     407.72  E(vib)   ...       0.19 
freq.     423.71  E(vib)   ...       0.18 
freq.     468.20  E(vib)   ...       0.16 
freq.     487.66  E(vib)   ...       0.15 
freq.     578.55  E(vib)   ...       0.11 
freq.     656.89  E(vib)   ...       0.08 
freq.     673.30  E(vib)   ...       0.08 
freq.     706.40  E(vib)   ...       0.07 
freq.     734.92  E(vib)   ...       0.06 
freq.     809.69  E(vib)   ...       0.05 
freq.     862.11  E(vib)   ...       0.04 
freq.     892.45  E(vib)   ...       0.03 
freq.     895.23  E(vib)   ...       0.03 
freq.     979.16  E(vib)   ...       0.03 
freq.     979.28  E(vib)   ...       0.03 
freq.    1016.68  E(vib)   ...       0.02 
freq.    1035.18  E(vib)   ...       0.02 
freq.    1073.47  E(vib)   ...       0.02 
freq.    1101.53  E(vib)   ...       0.02 
freq.    1106.25  E(vib)   ...       0.02 
freq.    1106.39  E(vib)   ...       0.02 
freq.    1110.14  E(vib)   ...       0.02 
freq.    1203.16  E(vib)   ...       0.01 
freq.    1260.29  E(vib)   ...       0.01 
freq.    1284.00  E(vib)   ...       0.01 
freq.    1295.87  E(vib)   ...       0.01 
freq.    1349.73  E(vib)   ...       0.01 
freq.    1397.98  E(vib)   ...       0.00 
freq.    1421.49  E(vib)   ...       0.00 
freq.    1426.84  E(vib)   ...       0.00 
freq.    1514.00  E(vib)   ...       0.00 
freq.    1564.86  E(vib)   ...       0.00 
freq.    1574.55  E(vib)   ...       0.00 
freq.    1639.04  E(vib)   ...       0.00 
freq.    1690.25  E(vib)   ...       0.00 
freq.    1737.84  E(vib)   ...       0.00 
freq.    1814.26  E(vib)   ...       0.00 
freq.    1815.24  E(vib)   ...       0.00 
freq.    3393.77  E(vib)   ...       0.00 
freq.    3394.38  E(vib)   ...       0.00 
freq.    3432.49  E(vib)   ...       0.00 
freq.    3432.49  E(vib)   ...       0.00 
freq.    3447.31  E(vib)   ...       0.00 
freq.    3450.87  E(vib)   ...       0.00 
freq.    3470.69  E(vib)   ...       0.00 
freq.    3473.86  E(vib)   ...       0.00 
freq.    3545.99  E(vib)   ...       0.00 
freq.    3546.00  E(vib)   ...       0.00 

------------
INNER ENERGY
------------

The inner energy is: U= E(el) + E(ZPE) + E(vib) + E(rot) + E(trans)
    E(el)   - is the total energy from the electronic structure calculation
              = E(kin-el) + E(nuc-el) + E(el-el) + E(nuc-nuc)
    E(ZPE)  - the the zero temperature vibrational energy from the frequency calculation
    E(vib)  - the the finite temperature correction to E(ZPE) due to population
              of excited vibrational states
    E(rot)  - is the rotational thermal energy
    E(trans)- is the translational thermal energy

Summary of contributions to the inner energy U:
Electronic energy                ...   -382.05510861 Eh
Zero point energy                ...      0.17701962 Eh     111.08 kcal/mol
Thermal vibrational correction   ...      0.00607317 Eh       3.81 kcal/mol
Thermal rotational correction    ...      0.00141627 Eh       0.89 kcal/mol
Thermal translational correction ...      0.00141627 Eh       0.89 kcal/mol
-----------------------------------------------------------------------
Total thermal energy                   -381.86918328 Eh


Summary of corrections to the electronic energy:
(perhaps to be used in another calculation)
Total thermal correction                  0.00890572 Eh       5.59 kcal/mol
Non-thermal (ZPE) correction              0.17701962 Eh     111.08 kcal/mol
-----------------------------------------------------------------------
Total correction                          0.18592533 Eh     116.67 kcal/mol


--------
ENTHALPY
--------

The enthalpy is H = U + kB*T
                kB is Boltzmann's constant
Total free energy                 ...   -381.86918328 Eh 
Thermal Enthalpy correction       ...      0.00094421 Eh       0.59 kcal/mol
-----------------------------------------------------------------------
Total Enthalpy                    ...   -381.86823907 Eh


Note: Rotational entropy computed according to Herzberg 
Infrared and Raman Spectra, Chapter V,1, Van Nostrand Reinhold, 1945 
Point Group:  C2h, Symmetry Number:   2  
Rotational constants in cm-1:     0.153923     0.022856     0.019901 

Vibrational entropy computed according to the QRRHO of S. Grimme
Chem.Eur.J. 2012 18 9955


-------
ENTROPY
-------

The entropy contributions are T*S = T*(S(el)+S(vib)+S(rot)+S(trans))
     S(el)   - electronic entropy
     S(vib)  - vibrational entropy
     S(rot)  - rotational entropy
     S(trans)- translational entropy
The entropies will be listed as multiplied by the temperature to get
units of energy

Electronic entropy                ...      0.00000000 Eh      0.00 kcal/mol
Vibrational entropy               ...      0.01027032 Eh      6.44 kcal/mol
Rotational entropy                ...      0.01337276 Eh      8.39 kcal/mol
Translational entropy             ...      0.01924489 Eh     12.08 kcal/mol
-----------------------------------------------------------------------
Final entropy term                ...      0.04288798 Eh     26.91 kcal/mol

In case the symmetry of your molecule has not been determined correctly
or in case you have a reason to use a different symmetry number we print 
out the resulting rotational entropy values for sn=1,12 :
 --------------------------------------------------------
|  sn= 1 | S(rot)=       0.01402722 Eh      8.80 kcal/mol|
|  sn= 2 | S(rot)=       0.01337276 Eh      8.39 kcal/mol|
|  sn= 3 | S(rot)=       0.01298993 Eh      8.15 kcal/mol|
|  sn= 4 | S(rot)=       0.01271831 Eh      7.98 kcal/mol|
|  sn= 5 | S(rot)=       0.01250762 Eh      7.85 kcal/mol|
|  sn= 6 | S(rot)=       0.01233548 Eh      7.74 kcal/mol|
|  sn= 7 | S(rot)=       0.01218993 Eh      7.65 kcal/mol|
|  sn= 8 | S(rot)=       0.01206385 Eh      7.57 kcal/mol|
|  sn= 9 | S(rot)=       0.01195264 Eh      7.50 kcal/mol|
|  sn=10 | S(rot)=       0.01185316 Eh      7.44 kcal/mol|
|  sn=11 | S(rot)=       0.01176317 Eh      7.38 kcal/mol|
|  sn=12 | S(rot)=       0.01168102 Eh      7.33 kcal/mol|
 --------------------------------------------------------


-------------------
GIBBS FREE ENERGY
-------------------

The Gibbs free energy is G = H - T*S

Total enthalpy                    ...   -381.86823907 Eh 
Total entropy correction          ...     -0.04288798 Eh    -26.91 kcal/mol
-----------------------------------------------------------------------
Final Gibbs free energy         ...   -381.91112705 Eh

For completeness - the Gibbs free energy minus the electronic energy
G-E(el)                           ...      0.14398157 Eh     90.35 kcal/mol


Timings for individual modules:

Sum of individual times         ...      136.878 sec (=   2.281 min)
GTO integral calculation        ...        0.538 sec (=   0.009 min)   0.4 %
SCF iterations                  ...       22.193 sec (=   0.370 min)  16.2 %
Analytical frequency calculation...      114.147 sec (=   1.902 min)  83.4 %
                             ****ORCA TERMINATED NORMALLY****
TOTAL RUN TIME: 0 days 0 hours 2 minutes 18 seconds 241 msec
