
                                        *****************
                                        * O   R   C   A *
                                        *****************

                                            #,                                       
                                            ###                                      
                                            ####                                     
                                            #####                                    
                                            ######                                   
                                           ########,                                 
                                     ,,################,,,,,                         
                               ,,#################################,,                 
                          ,,##########################################,,             
                       ,#########################################, ''#####,          
                    ,#############################################,,   '####,        
                  ,##################################################,,,,####,       
                ,###########''''           ''''###############################       
              ,#####''   ,,,,##########,,,,          '''####'''          '####       
            ,##' ,,,,###########################,,,                        '##       
           ' ,,###''''                  '''############,,,                           
         ,,##''                                '''############,,,,        ,,,,,,###''
      ,#''                                            '''#######################'''  
     '                                                          ''''####''''         
             ,#######,   #######,   ,#######,      ##                                
            ,#'     '#,  ##    ##  ,#'     '#,    #''#        ######   ,####,        
            ##       ##  ##   ,#'  ##            #'  '#       #        #'  '#        
            ##       ##  #######   ##           ,######,      #####,   #    #        
            '#,     ,#'  ##    ##  '#,     ,#' ,#      #,         ##   #,  ,#        
             '#######'   ##     ##  '#######'  #'      '#     #####' # '####'        



                  #######################################################
                  #                        -***-                        #
                  #          Department of theory and spectroscopy      #
                  #    Directorship and core code : Frank Neese         #
                  #        Max Planck Institute fuer Kohlenforschung    #
                  #                Kaiser Wilhelm Platz 1               #
                  #                 D-45470 Muelheim/Ruhr               #
                  #                      Germany                        #
                  #                                                     #
                  #                  All rights reserved                #
                  #                        -***-                        #
                  #######################################################


                         Program Version 5.0.0 -  RELEASE  -
                                (SVN: $Rev: 19529$)
                ($Date: 2021-06-28 11:36:33 +0200 (Mo, 28 Jun 2021) $)


 With contributions from (in alphabetic order):
   Daniel Aravena         : Magnetic Suceptibility
   Michael Atanasov       : Ab Initio Ligand Field Theory (pilot matlab implementation)
   Alexander A. Auer      : GIAO ZORA, VPT2 properties, NMR spectrum
   Ute Becker             : Parallelization
   Giovanni Bistoni       : ED, misc. LED, open-shell LED, HFLD
   Martin Brehm           : Molecular dynamics
   Dmytro Bykov           : SCF Hessian
   Vijay G. Chilkuri      : MRCI spin determinant printing, contributions to CSF-ICE
   Dipayan Datta          : RHF DLPNO-CCSD density
   Achintya Kumar Dutta   : EOM-CC, STEOM-CC
   Dmitry Ganyushin       : Spin-Orbit,Spin-Spin,Magnetic field MRCI
   Miquel Garcia          : C-PCM Hessian, Gaussian charge scheme
   Yang Guo               : DLPNO-NEVPT2, F12-NEVPT2, CIM, IAO-localization
   Andreas Hansen         : Spin unrestricted coupled pair/coupled cluster methods
   Benjamin Helmich-Paris : MC-RPA, TRAH-SCF, COSX integrals
   Lee Huntington         : MR-EOM, pCC
   Robert Izsak           : Overlap fitted RIJCOSX, COSX-SCS-MP3, EOM
   Marcus Kettner         : VPT2
   Christian Kollmar      : KDIIS, OOCD, Brueckner-CCSD(T), CCSD density, CASPT2, CASPT2-K
   Simone Kossmann        : Meta GGA functionals, TD-DFT gradient, OOMP2, MP2 Hessian
   Martin Krupicka        : Initial AUTO-CI
   Lucas Lang             : DCDCAS
   Marvin Lechner         : AUTO-CI (C++ implementation), FIC-MRCC
   Dagmar Lenk            : GEPOL surface, SMD
   Dimitrios Liakos       : Extrapolation schemes; Compound Job, initial MDCI parallelization
   Dimitrios Manganas     : Further ROCIS development; embedding schemes
   Dimitrios Pantazis     : SARC Basis sets
   Anastasios Papadopoulos: AUTO-CI, single reference methods and gradients
   Taras Petrenko         : DFT Hessian,TD-DFT gradient, ASA, ECA, R-Raman, ABS, FL, XAS/XES, NRVS
   Peter Pinski           : DLPNO-MP2, DLPNO-MP2 Gradient
   Christoph Reimann      : Effective Core Potentials
   Marius Retegan         : Local ZFS, SOC
   Christoph Riplinger    : Optimizer, TS searches, QM/MM, DLPNO-CCSD(T), (RO)-DLPNO pert. Triples
   Tobias Risthaus        : Range-separated hybrids, TD-DFT gradient, RPA, STAB
   Michael Roemelt        : Original ROCIS implementation
   Masaaki Saitow         : Open-shell DLPNO-CCSD energy and density
   Barbara Sandhoefer     : DKH picture change effects
   Avijit Sen             : IP-ROCIS
   Kantharuban Sivalingam : CASSCF convergence, NEVPT2, FIC-MRCI
   Bernardo de Souza      : ESD, SOC TD-DFT
   Georgi Stoychev        : AutoAux, RI-MP2 NMR
   Willem Van den Heuvel  : Paramagnetic NMR
   Boris Wezisla          : Elementary symmetry handling
   Frank Wennmohs         : Technical directorship


 We gratefully acknowledge several colleagues who have allowed us to
 interface, adapt or use parts of their codes:
   Stefan Grimme, W. Hujo, H. Kruse, P. Pracht,  : VdW corrections, initial TS optimization,
                  C. Bannwarth, S. Ehlert          DFT functionals, gCP, sTDA/sTD-DF
   Ed Valeev, F. Pavosevic, A. Kumar             : LibInt (2-el integral package), F12 methods
   Garnet Chan, S. Sharma, J. Yang, R. Olivares  : DMRG
   Ulf Ekstrom                                   : XCFun DFT Library
   Mihaly Kallay                                 : mrcc  (arbitrary order and MRCC methods)
   Jiri Pittner, Ondrej Demel                    : Mk-CCSD
   Frank Weinhold                                : gennbo (NPA and NBO analysis)
   Christopher J. Cramer and Donald G. Truhlar   : smd solvation model
   Lars Goerigk                                  : TD-DFT with DH, B97 family of functionals
   V. Asgeirsson, H. Jonsson                     : NEB implementation
   FAccTs GmbH                                   : IRC, NEB, NEB-TS, DLPNO-Multilevel, CI-OPT
                                                   MM, QMMM, 2- and 3-layer-ONIOM, Crystal-QMMM,
                                                   LR-CPCM, SF, NACMEs, symmetry and pop. for TD-DFT,
                                                   nearIR, NL-DFT gradient (VV10), updates on ESD,
                                                   ML-optimized integration grids
   S Lehtola, MJT Oliveira, MAL Marques          : LibXC Library
   Liviu Ungur et al                             : ANISO software


 Your calculation uses the libint2 library for the computation of 2-el integrals
 For citations please refer to: http://libint.valeyev.net

 Your ORCA version has been built with support for libXC version: 5.1.0
 For citations please refer to: https://tddft.org/programs/libxc/

 This ORCA versions uses:
   CBLAS   interface :  Fast vector & matrix operations
   LAPACKE interface :  Fast linear algebra routines
   SCALAPACK package :  Parallel linear algebra routines
   Shared memory     :  Shared parallel matrices
   BLAS/LAPACK       :  OpenBLAS 0.3.15  USE64BITINT DYNAMIC_ARCH NO_AFFINITY Haswell SINGLE_THREADED
        Core in use  :  Haswell
   Copyright (c) 2011-2014, The OpenBLAS Project


================================================================================

----- Orbital basis set information -----
Your calculation utilizes the basis: STO-3G
   H-Ne       : W. J. Hehre, R. F. Stewart and J. A. Pople, J. Chem. Phys. 2657 (1969).
   Na-Ar      : W. J. Hehre, R. Ditchfield, R. F. Stewart and J. A. Pople, J. Chem. Phys. 2769 (1970).
   K,Ca,Ga-Kr : W. J. Pietro, B. A. Levy, W. J. Hehre and R. F. Stewart, J. Am. Chem. Soc. 19, 2225 (1980).
   Sc-Zn,Y-Cd : W. J. Pietro and W. J. Hehre, J. Comp. Chem. 4, 241 (1983).

----- AuxJ basis set information -----
Your calculation utilizes the auxiliary basis: def2/J
   F. Weigend, Phys. Chem. Chem. Phys. 8, 1057 (2006).

================================================================================
                                        WARNINGS
                       Please study these warnings very carefully!
================================================================================

WARNING: Gradients needed for Numerical Frequencies
  ===> : Setting RunTyp to EnGrad

WARNING: The environment variable RSH_COMMAND is not set!
  ===> : All Displacements for the Numerical Hessian calculation
         will be started on localhost

WARNING: Symmetry is not implemented for Numerical Hessian or Gradient calculations
  ===> : Turning off Symmetry

INFO   : the flag for use of the SHARK integral package has been found!

================================================================================
                                       INPUT FILE
================================================================================
NAME = dvb_raman.inp
|  1> ! rks b3lyp sto-3g usesym numfreq
|  2> 
|  3> %elprop
|  4>  polar 1
|  5>  end
|  6> 
|  7> * xyz 0 1
|  8>  C       -1.4152533224   0.2302217854   0.0000000000
|  9>  C        1.4152533224  -0.2302217854   0.0000000000
| 10>  C       -0.4951331558   1.3144608674   0.0000000000
| 11>  C        0.4951331558  -1.3144608674   0.0000000000
| 12>  C        0.8894090436   1.0909493743   0.0000000000
| 13>  C       -0.8894090436  -1.0909493743   0.0000000000
| 14>  H       -0.8795511985   2.3437343748   0.0000000000
| 15>  H        0.8795511985  -2.3437343748   0.0000000000
| 16>  H        1.5779041557   1.9450061275   0.0000000000
| 17>  H       -1.5779041557  -1.9450061275   0.0000000000
| 18>  C        2.8845844962  -0.5210893778   0.0000000000
| 19>  C       -2.8845844962   0.5210893778   0.0000000000
| 20>  H        3.1403356810  -1.5919605685   0.0000000000
| 21>  H       -3.1403356810   1.5919605685   0.0000000000
| 22>  C        3.8800428103   0.3822535424   0.0000000000
| 23>  C       -3.8800428103  -0.3822535424   0.0000000000
| 24>  H        3.6946765858   1.4624389570   0.0000000000
| 25>  H       -3.6946765858  -1.4624389570   0.0000000000
| 26>  H        4.9316453546   0.0711049543   0.0000000000
| 27>  H       -4.9316453546  -0.0711049543   0.0000000000
| 28> *
| 29> %pal
| 30>  nprocs 4
| 31> end
| 32> 
| 33>                          ****END OF INPUT****
================================================================================

                     *******************************
                     * Energy+Gradient Calculation *
                     *******************************

---------------------------------
CARTESIAN COORDINATES (ANGSTROEM)
---------------------------------
  C     -1.415253    0.230222    0.000000
  C      1.415253   -0.230222    0.000000
  C     -0.495133    1.314461    0.000000
  C      0.495133   -1.314461    0.000000
  C      0.889409    1.090949    0.000000
  C     -0.889409   -1.090949    0.000000
  H     -0.879551    2.343734    0.000000
  H      0.879551   -2.343734    0.000000
  H      1.577904    1.945006    0.000000
  H     -1.577904   -1.945006    0.000000
  C      2.884584   -0.521089    0.000000
  C     -2.884584    0.521089    0.000000
  H      3.140336   -1.591961    0.000000
  H     -3.140336    1.591961    0.000000
  C      3.880043    0.382254    0.000000
  C     -3.880043   -0.382254    0.000000
  H      3.694677    1.462439    0.000000
  H     -3.694677   -1.462439    0.000000
  H      4.931645    0.071105    0.000000
  H     -4.931645   -0.071105    0.000000

----------------------------
CARTESIAN COORDINATES (A.U.)
----------------------------
  NO LB      ZA    FRAG     MASS         X           Y           Z
   0 C     6.0000    0    12.011   -2.674441    0.435056    0.000000
   1 C     6.0000    0    12.011    2.674441   -0.435056    0.000000
   2 C     6.0000    0    12.011   -0.935666    2.483971    0.000000
   3 C     6.0000    0    12.011    0.935666   -2.483971    0.000000
   4 C     6.0000    0    12.011    1.680740    2.061596    0.000000
   5 C     6.0000    0    12.011   -1.680740   -2.061596    0.000000
   6 H     1.0000    0     1.008   -1.662111    4.429016    0.000000
   7 H     1.0000    0     1.008    1.662111   -4.429016    0.000000
   8 H     1.0000    0     1.008    2.981807    3.675529    0.000000
   9 H     1.0000    0     1.008   -2.981807   -3.675529    0.000000
  10 C     6.0000    0    12.011    5.451075   -0.984716    0.000000
  11 C     6.0000    0    12.011   -5.451075    0.984716    0.000000
  12 H     1.0000    0     1.008    5.934374   -3.008369    0.000000
  13 H     1.0000    0     1.008   -5.934374    3.008369    0.000000
  14 C     6.0000    0    12.011    7.332218    0.722355    0.000000
  15 C     6.0000    0    12.011   -7.332218   -0.722355    0.000000
  16 H     1.0000    0     1.008    6.981927    2.763609    0.000000
  17 H     1.0000    0     1.008   -6.981927   -2.763609    0.000000
  18 H     1.0000    0     1.008    9.319459    0.134369    0.000000
  19 H     1.0000    0     1.008   -9.319459   -0.134369    0.000000

--------------------------------
INTERNAL COORDINATES (ANGSTROEM)
--------------------------------
 C      0   0   0     0.000000000000     0.00000000     0.00000000
 C      1   0   0     2.867712703209     0.00000000     0.00000000
 C      1   2   0     1.422039207589    58.92046780     0.00000000
 C      2   1   3     1.422039207589    58.92046780   180.00000085
 C      3   1   2     1.402467286416   121.14866524     0.00000000
 C      4   2   1     1.402467286416   121.14866524     0.00000000
 H      3   1   2     1.098717973180   119.20109491   180.00000000
 H      4   2   1     1.098717973180   119.20109491   180.00000000
 H      5   3   1     1.097013426113   119.70357006   180.00000000
 H      6   4   2     1.097013426113   119.70357006   180.00000000
 C      2   1   3     1.497844469432   178.04202002   180.00000000
 C      1   2   3     1.497844469432   178.04202002     0.00000000
 H     11   2   5     1.100987636442   114.62953459   180.00000000
 H     12   1   6     1.100987636442   114.62953459   180.00000000
 C     11   2   5     1.344234237991   126.57992264     0.00000000
 C     12   1   6     1.344234237991   126.57992264     0.00000000
 H     15  11   2     1.095974984705   122.48517186     0.00000000
 H     16  12   1     1.095974984705   122.48517186     0.00000000
 H     15  11   2     1.096668297643   121.29492471   180.00000085
 H     16  12   1     1.096668297643   121.29492471   180.00000085

---------------------------
INTERNAL COORDINATES (A.U.)
---------------------------
 C      0   0   0     0.000000000000     0.00000000     0.00000000
 C      1   0   0     5.419191639833     0.00000000     0.00000000
 C      1   2   0     2.687264654042    58.92046780     0.00000000
 C      2   1   3     2.687264654042    58.92046780   180.00000085
 C      3   1   2     2.650279083110   121.14866524     0.00000000
 C      4   2   1     2.650279083110   121.14866524     0.00000000
 H      3   1   2     2.076276067727   119.20109491   180.00000000
 H      4   2   1     2.076276067727   119.20109491   180.00000000
 H      5   3   1     2.073054940588   119.70357006   180.00000000
 H      6   4   2     2.073054940588   119.70357006   180.00000000
 C      2   1   3     2.830515838436   178.04202002   180.00000000
 C      1   2   3     2.830515838436   178.04202002     0.00000000
 H     11   2   5     2.080565109708   114.62953459   180.00000000
 H     12   1   6     2.080565109708   114.62953459   180.00000000
 C     11   2   5     2.540234569643   126.57992264     0.00000000
 C     12   1   6     2.540234569643   126.57992264     0.00000000
 H     15  11   2     2.071092570722   122.48517186     0.00000000
 H     16  12   1     2.071092570722   122.48517186     0.00000000
 H     15  11   2     2.072402742299   121.29492471   180.00000085
 H     16  12   1     2.072402742299   121.29492471   180.00000085

---------------------
BASIS SET INFORMATION
---------------------
There are 2 groups of distinct atoms

 Group   1 Type C   : 6s3p contracted to 2s1p pattern {33/3}
 Group   2 Type H   : 3s contracted to 1s pattern {3}

Atom   0C    basis set group =>   1
Atom   1C    basis set group =>   1
Atom   2C    basis set group =>   1
Atom   3C    basis set group =>   1
Atom   4C    basis set group =>   1
Atom   5C    basis set group =>   1
Atom   6H    basis set group =>   2
Atom   7H    basis set group =>   2
Atom   8H    basis set group =>   2
Atom   9H    basis set group =>   2
Atom  10C    basis set group =>   1
Atom  11C    basis set group =>   1
Atom  12H    basis set group =>   2
Atom  13H    basis set group =>   2
Atom  14C    basis set group =>   1
Atom  15C    basis set group =>   1
Atom  16H    basis set group =>   2
Atom  17H    basis set group =>   2
Atom  18H    basis set group =>   2
Atom  19H    basis set group =>   2
---------------------------------
AUXILIARY/J BASIS SET INFORMATION
---------------------------------
There are 2 groups of distinct atoms

 Group   1 Type C   : 12s5p4d2f1g contracted to 6s4p3d1f1g pattern {711111/2111/211/2/1}
 Group   2 Type H   : 5s2p1d contracted to 3s1p1d pattern {311/2/1}

Atom   0C    basis set group =>   1
Atom   1C    basis set group =>   1
Atom   2C    basis set group =>   1
Atom   3C    basis set group =>   1
Atom   4C    basis set group =>   1
Atom   5C    basis set group =>   1
Atom   6H    basis set group =>   2
Atom   7H    basis set group =>   2
Atom   8H    basis set group =>   2
Atom   9H    basis set group =>   2
Atom  10C    basis set group =>   1
Atom  11C    basis set group =>   1
Atom  12H    basis set group =>   2
Atom  13H    basis set group =>   2
Atom  14C    basis set group =>   1
Atom  15C    basis set group =>   1
Atom  16H    basis set group =>   2
Atom  17H    basis set group =>   2
Atom  18H    basis set group =>   2
Atom  19H    basis set group =>   2


           ************************************************************
           *        Program running with 4 parallel MPI-processes     *
           *              working on a common directory               *
           ************************************************************
------------------------------------------------------------------------------
                           ORCA GTO INTEGRAL CALCULATION
                           -- RI-GTO INTEGRALS CHOSEN --
------------------------------------------------------------------------------
------------------------------------------------------------------------------
                   ___                                                        
                  /   \      - P O W E R E D   B Y -                         
                 /     \                                                     
                 |  |  |   _    _      __       _____    __    __             
                 |  |  |  | |  | |    /  \     |  _  \  |  |  /  |          
                  \  \/   | |  | |   /    \    | | | |  |  | /  /          
                 / \  \   | |__| |  /  /\  \   | |_| |  |  |/  /          
                |  |  |   |  __  | /  /__\  \  |    /   |      \           
                |  |  |   | |  | | |   __   |  |    \   |  |\   \          
                \     /   | |  | | |  |  |  |  | |\  \  |  | \   \       
                 \___/    |_|  |_| |__|  |__|  |_| \__\ |__|  \__/        
                                                                              
                      - O R C A' S   B I G   F R I E N D -                    
                                      &                                       
                       - I N T E G R A L  F E E D E R -                       
                                                                              
 v1 FN, 2020, v2 2021                                                         
------------------------------------------------------------------------------


Reading SHARK input file dvb_raman.SHARKINP.tmp ... ok
----------------------
SHARK INTEGRAL PACKAGE
----------------------

Number of atoms                             ...     20
Number of basis functions                   ...     60
Number of shells                            ...     40
Maximum angular momentum                    ...      1
Integral batch strategy                     ... SHARK/LIBINT Hybrid
RI-J (if used) integral strategy            ... SPLIT-RIJ (Revised 2003 algorithm where possible)
Printlevel                                  ...      1
Contraction scheme used                     ... SEGMENTED contraction
Coulomb Range Separation                    ... NOT USED
Exchange Range Separation                   ... NOT USED
Finite Nucleus Model                        ... NOT USED
Auxiliary Coulomb fitting basis             ... AVAILABLE
   # of basis functions in Aux-J            ...    600
   # of shells in Aux-J                     ...    200
   Maximum angular momentum in Aux-J        ...      4
Auxiliary J/K fitting basis                 ... NOT available
Auxiliary Correlation fitting basis         ... NOT available
Auxiliary 'external' fitting basis          ... NOT available
Integral threshold                          ...     2.500000e-11
Primitive cut-off                           ...     2.500000e-12
Primitive pair pre-selection threshold      ...     2.500000e-12

Calculating pre-screening integrals         ... done (  0.0 sec) Dimension = 40
Organizing shell pair data                  ... done (  0.0 sec)
Shell pair information
Total number of shell pairs                 ...       820
Shell pairs after pre-screening             ...       756
Total number of primitive shell pairs       ...      7380
Primitive shell pairs kept                  ...      4872
          la=0 lb=0:    409 shell pairs
          la=1 lb=0:    292 shell pairs
          la=1 lb=1:     55 shell pairs

Calculating one electron integrals          ... done (  0.0 sec)
Calculating RI/J V-Matrix + Cholesky decomp.... done (  0.0 sec)
Calculating Nuclear repulsion               ... done (  0.0 sec) ENN=    445.936977869861 Eh

SHARK setup successfully completed in   0.1 seconds

Maximum memory used throughout the entire GTOINT-calculation: 6.5 MB


           ************************************************************
           *        Program running with 4 parallel MPI-processes     *
           *              working on a common directory               *
           ************************************************************
-------------------------------------------------------------------------------
                                 ORCA SCF
-------------------------------------------------------------------------------

------------
SCF SETTINGS
------------
Hamiltonian:
 Density Functional     Method          .... DFT(GTOs)
 Exchange Functional    Exchange        .... B88
   X-Alpha parameter    XAlpha          ....  0.666667
   Becke's b parameter  XBeta           ....  0.004200
 Correlation Functional Correlation     .... LYP
 LDA part of GGA corr.  LDAOpt          .... VWN-5
 Gradients option       PostSCFGGA      .... off
 Hybrid DFT is turned on
   Fraction HF Exchange ScalHFX         ....  0.200000
   Scaling of DF-GGA-X  ScalDFX         ....  0.720000
   Scaling of DF-GGA-C  ScalDFC         ....  0.810000
   Scaling of DF-LDA-C  ScalLDAC        ....  1.000000
   Perturbative correction              ....  0.000000
   Density functional embedding theory  .... OFF
   NL short-range parameter             ....  4.800000
 RI-approximation to the Coulomb term is turned on
   Number of AuxJ basis functions       .... 600
   RIJ-COSX (HFX calculated with COS-X)).... on


General Settings:
 Integral files         IntName         .... dvb_raman
 Hartree-Fock type      HFTyp           .... RHF
 Total Charge           Charge          ....    0
 Multiplicity           Mult            ....    1
 Number of Electrons    NEL             ....   70
 Basis Dimension        Dim             ....   60
 Nuclear Repulsion      ENuc            ....    445.9369778699 Eh

Convergence Acceleration:
 DIIS                   CNVDIIS         .... on
   Start iteration      DIISMaxIt       ....    12
   Startup error        DIISStart       ....  0.200000
   # of expansion vecs  DIISMaxEq       ....     5
   Bias factor          DIISBfac        ....   1.050
   Max. coefficient     DIISMaxC        ....  10.000
 Trust-Rad. Augm. Hess. CNVTRAH         .... auto
   Auto Start mean grad. ratio tolernc. ....  1.125000
   Auto Start start iteration           ....    20
   Auto Start num. interpolation iter.  ....    10
   Max. Number of Micro iterations      ....    16
   Max. Number of Macro iterations      .... Maxiter - #DIIS iter
   Number of Davidson start vectors     ....     2
   Converg. threshold I  (grad. norm)   ....   1.000e-05
   Converg. threshold II (energy diff.) ....   1.000e-08
   Grad. Scal. Fac. for Micro threshold ....   0.100
   Minimum threshold for Micro iter.    ....   0.010
   NR start threshold (gradient norm)   ....   0.001
   Initial trust radius                 ....   0.400
   Minimum AH scaling param. (alpha)    ....   1.000
   Maximum AH scaling param. (alpha)    .... 1000.000
   Orbital update algorithm             .... Taylor
   White noise on init. David. guess    .... on
   Maximum white noise                  ....   0.010
   Quad. conv. algorithm                .... NR
 SOSCF                  CNVSOSCF        .... on
   Start iteration      SOSCFMaxIt      ....   150
   Startup grad/error   SOSCFStart      ....  0.003300
 Level Shifting         CNVShift        .... on
   Level shift para.    LevelShift      ....    0.2500
   Turn off err/grad.   ShiftErr        ....    0.0010
 Zerner damping         CNVZerner       .... off
 Static damping         CNVDamp         .... on
   Fraction old density DampFac         ....    0.7000
   Max. Damping (<1)    DampMax         ....    0.9800
   Min. Damping (>=0)   DampMin         ....    0.0000
   Turn off err/grad.   DampErr         ....    0.1000
 Fernandez-Rico         CNVRico         .... off

SCF Procedure:
 Maximum # iterations   MaxIter         ....   125
 SCF integral mode      SCFMode         .... Direct
   Integral package                     .... SHARK and LIBINT hybrid scheme
 Reset frequency        DirectResetFreq ....    20
 Integral Threshold     Thresh          ....  2.500e-11 Eh
 Primitive CutOff       TCut            ....  2.500e-12 Eh

Convergence Tolerance:
 Convergence Check Mode ConvCheckMode   .... Total+1el-Energy
 Convergence forced     ConvForced      .... 0
 Energy Change          TolE            ....  1.000e-08 Eh
 1-El. energy change                    ....  1.000e-05 Eh
 Orbital Gradient       TolG            ....  1.000e-05
 Orbital Rotation angle TolX            ....  1.000e-05
 DIIS Error             TolErr          ....  5.000e-07


Diagonalization of the overlap matrix:
Smallest eigenvalue                        ... 1.815e-01
Time for diagonalization                   ...    0.001 sec
Threshold for overlap eigenvalues          ... 1.000e-08
Number of eigenvalues below threshold      ... 0
Time for construction of square roots      ...    0.001 sec
Total time needed                          ...    0.002 sec

Time for model grid setup =    0.070 sec

------------------------------
INITIAL GUESS: MODEL POTENTIAL
------------------------------
Loading Hartree-Fock densities                     ... done
Calculating cut-offs                               ... done
Initializing the effective Hamiltonian             ... done
Setting up the integral package (SHARK)            ... done
Starting the Coulomb interaction                   ... done (   0.0 sec)
Reading the grid                                   ... done
Mapping shells                                     ... done
Starting the XC term evaluation                    ... done (   0.0 sec)
  promolecular density results
     # of electrons  =     69.991105410
     EX              =    -54.264379228
     EC              =     -2.295156933
     EX+EC           =    -56.559536160
Transforming the Hamiltonian                       ... done (   0.0 sec)
Diagonalizing the Hamiltonian                      ... done (   0.0 sec)
Back transforming the eigenvectors                 ... done (   0.0 sec)
Now organizing SCF variables                       ... done
                      ------------------
                      INITIAL GUESS DONE (   0.1 sec)
                      ------------------
-------------------
DFT GRID GENERATION
-------------------

General Integration Accuracy     IntAcc      ... 4.388
Radial Grid Type                 RadialGrid  ... OptM3 with GC (2021)
Angular Grid (max. ang.)         AngularGrid ... 4 (Lebedev-302)
Angular grid pruning method      GridPruning ... 4 (adaptive)
Weight generation scheme         WeightScheme... Becke
Basis function cutoff            BFCut       ... 1.0000e-11
Integration weight cutoff        WCut        ... 1.0000e-14
Angular grids for H and He will be reduced by one unit
Partially contracted basis set               ... off
Rotationally invariant grid construction     ... off

Total number of grid points                  ...    92318
Total number of batches                      ...     1450
Average number of points per batch           ...       63
Average number of grid points per atom       ...     4616
Time for grid setup =    0.368 sec

--------------------
COSX GRID GENERATION
--------------------

GRIDX 1
-------
General Integration Accuracy     IntAcc      ... 3.816
Radial Grid Type                 RadialGrid  ... OptM3 with GC (2021)
Angular Grid (max. ang.)         AngularGrid ... 1 (Lebedev-50)
Angular grid pruning method      GridPruning ... 4 (adaptive)
Weight generation scheme         WeightScheme... Becke
Basis function cutoff            BFCut       ... 1.0000e-11
Integration weight cutoff        WCut        ... 1.0000e-14
Angular grids for H and He will be reduced by one unit
Partially contracted basis set               ... on
Rotationally invariant grid construction     ... off

Total number of grid points                  ...    11840
Total number of batches                      ...      194
Average number of points per batch           ...       61
Average number of grid points per atom       ...      592
UseSFitting                                  ... on

GRIDX 2
-------
General Integration Accuracy     IntAcc      ... 4.020
Radial Grid Type                 RadialGrid  ... OptM3 with GC (2021)
Angular Grid (max. ang.)         AngularGrid ... 2 (Lebedev-110)
Angular grid pruning method      GridPruning ... 4 (adaptive)
Weight generation scheme         WeightScheme... Becke
Basis function cutoff            BFCut       ... 1.0000e-11
Integration weight cutoff        WCut        ... 1.0000e-14
Angular grids for H and He will be reduced by one unit
Partially contracted basis set               ... on
Rotationally invariant grid construction     ... off

Total number of grid points                  ...    25542
Total number of batches                      ...      412
Average number of points per batch           ...       61
Average number of grid points per atom       ...     1277
UseSFitting                                  ... on

GRIDX 3
-------
General Integration Accuracy     IntAcc      ... 4.338
Radial Grid Type                 RadialGrid  ... OptM3 with GC (2021)
Angular Grid (max. ang.)         AngularGrid ... 3 (Lebedev-194)
Angular grid pruning method      GridPruning ... 4 (adaptive)
Weight generation scheme         WeightScheme... Becke
Basis function cutoff            BFCut       ... 1.0000e-11
Integration weight cutoff        WCut        ... 1.0000e-14
Angular grids for H and He will be reduced by one unit
Partially contracted basis set               ... on
Rotationally invariant grid construction     ... off

Total number of grid points                  ...    55986
Total number of batches                      ...      884
Average number of points per batch           ...       63
Average number of grid points per atom       ...     2799
UseSFitting                                  ... on

Time for X-Grid setup             =    0.294 sec

--------------
SCF ITERATIONS
--------------
ITER       Energy         Delta-E        Max-DP      RMS-DP      [F,P]     Damp
               ***  Starting incremental Fock matrix formation  ***
  0   -382.0027940388   0.000000000000 0.04249382  0.00318998  0.0765493 0.7000
  1   -382.0234997421  -0.020705703384 0.03339237  0.00251935  0.0478627 0.7000
                               ***Turning on DIIS***
  2   -382.0348811489  -0.011381406767 0.06547210  0.00499214  0.0257122 0.0000
  3   -382.0525236555  -0.017642506588 0.02217245  0.00162276  0.0170497 0.0000
  4   -382.0550037432  -0.002480087697 0.00557954  0.00039139  0.0040689 0.0000
                      *** Initiating the SOSCF procedure ***
                           *** Shutting down DIIS ***
                      *** Re-Reading the Fockian *** 
                      *** Removing any level shift *** 
ITER      Energy       Delta-E        Grad      Rot      Max-DP    RMS-DP
  5   -382.05512491  -0.0001211646  0.000380  0.000380  0.000959  0.000076
               *** Restarting incremental Fock matrix formation ***
  6   -382.05517449  -0.0000495796  0.000229  0.000917  0.000920  0.000049
  7   -382.05517460  -0.0000001133  0.000174  0.000362  0.000653  0.000028
  8   -382.05517509  -0.0000004863  0.000054  0.000116  0.000201  0.000014
  9   -382.05517511  -0.0000000250  0.000037  0.000038  0.000098  0.000006
 10   -382.05517514  -0.0000000286  0.000008  0.000023  0.000030  0.000002
 11   -382.05517514  -0.0000000002  0.000006  0.000011  0.000014  0.000001
                  ***Gradient check signals convergence***
              ***Rediagonalizing the Fockian in SOSCF/NRSCF***

               *****************************************************
               *                     SUCCESS                       *
               *           SCF CONVERGED AFTER  12 CYCLES          *
               *****************************************************

Old exchange energy                            =    -11.058903625 Eh
New exchange energy                            =    -11.058837124 Eh
Exchange energy change after final integration =      0.000066501 Eh
Total energy after final integration           =   -382.055108639 Eh
Final COS-X integration done in                =     0.925 sec

----------------
TOTAL SCF ENERGY
----------------

Total Energy       :         -382.05510864 Eh          -10396.24804 eV

Components:
Nuclear Repulsion  :          445.93697787 Eh           12134.56208 eV
Electronic Energy  :         -827.99208651 Eh          -22530.81012 eV
One Electron Energy:        -1400.63813333 Eh          -38113.30125 eV
Two Electron Energy:          572.64604682 Eh           15582.49113 eV
Max COSX asymmetry :            0.00000065 Eh               0.00002 eV

Virial components:
Potential Energy   :         -757.89788025 Eh          -20623.44980 eV
Kinetic Energy     :          375.84277161 Eh           10227.20176 eV
Virial Ratio       :            2.01652908


DFT components:
N(Alpha)           :       34.999915907391 electrons
N(Beta)            :       34.999915907391 electrons
N(Total)           :       69.999831814781 electrons
E(X)               :      -43.808435181083 Eh       
E(C)               :       -2.717823984082 Eh       
E(XC)              :      -46.526259165164 Eh       
DFET-embed. en.    :        0.000000000000 Eh       

---------------
SCF CONVERGENCE
---------------

  Last Energy change         ...    3.2281e-10  Tolerance :   1.0000e-08
  Last MAX-Density change    ...    3.1086e-15  Tolerance :   1.0000e-07
  Last RMS-Density change    ...    1.3929e-16  Tolerance :   5.0000e-09
  Last Orbital Gradient      ...    6.0877e-07  Tolerance :   1.0000e-05
  Last Orbital Rotation      ...    1.7323e-06  Tolerance :   1.0000e-05

             **** THE GBW FILE WAS UPDATED (dvb_raman.gbw) ****
             **** DENSITY dvb_raman.scfp WAS UPDATED ****
             **** ENERGY FILE WAS UPDATED (dvb_raman.en.tmp) ****
             **** THE GBW FILE WAS UPDATED (dvb_raman.gbw) ****
             **** DENSITY dvb_raman.scfp WAS UPDATED ****
----------------
ORBITAL ENERGIES
----------------

  NO   OCC          E(Eh)            E(eV) 
   0   2.0000     -10.016733      -272.5692 
   1   2.0000     -10.016684      -272.5678 
   2   2.0000     -10.004451      -272.2350 
   3   2.0000     -10.004450      -272.2349 
   4   2.0000     -10.003401      -272.2064 
   5   2.0000     -10.003399      -272.2063 
   6   2.0000     -10.002750      -272.1887 
   7   2.0000     -10.002608      -272.1848 
   8   2.0000      -9.988700      -271.8063 
   9   2.0000      -9.988700      -271.8063 
  10   2.0000      -0.805848       -21.9282 
  11   2.0000      -0.750295       -20.4166 
  12   2.0000      -0.714220       -19.4349 
  13   2.0000      -0.696292       -18.9471 
  14   2.0000      -0.663678       -18.0596 
  15   2.0000      -0.584891       -15.9157 
  16   2.0000      -0.555524       -15.1166 
  17   2.0000      -0.527795       -14.3620 
  18   2.0000      -0.506323       -13.7778 
  19   2.0000      -0.453978       -12.3534 
  20   2.0000      -0.435574       -11.8526 
  21   2.0000      -0.407380       -11.0854 
  22   2.0000      -0.394080       -10.7235 
  23   2.0000      -0.392311       -10.6753 
  24   2.0000      -0.370803       -10.0901 
  25   2.0000      -0.347302        -9.4506 
  26   2.0000      -0.343395        -9.3442 
  27   2.0000      -0.320882        -8.7316 
  28   2.0000      -0.307443        -8.3659 
  29   2.0000      -0.289355        -7.8737 
  30   2.0000      -0.283875        -7.7246 
  31   2.0000      -0.259860        -7.0711 
  32   2.0000      -0.208741        -5.6801 
  33   2.0000      -0.191560        -5.2126 
  34   2.0000      -0.149388        -4.0651 
  35   0.0000       0.041155         1.1199 
  36   0.0000       0.093772         2.5517 
  37   0.0000       0.114378         3.1124 
  38   0.0000       0.185864         5.0576 
  39   0.0000       0.275990         7.5101 
  40   0.0000       0.336151         9.1471 
  41   0.0000       0.344309         9.3691 
  42   0.0000       0.383223        10.4280 
  43   0.0000       0.384931        10.4745 
  44   0.0000       0.414002        11.2656 
  45   0.0000       0.414880        11.2895 
  46   0.0000       0.429468        11.6864 
  47   0.0000       0.443051        12.0560 
  48   0.0000       0.457387        12.4461 
  49   0.0000       0.482029        13.1167 
  50   0.0000       0.529282        14.4025 
  51   0.0000       0.550075        14.9683 
  52   0.0000       0.580136        15.7863 
  53   0.0000       0.602190        16.3864 
  54   0.0000       0.628612        17.1054 
  55   0.0000       0.643558        17.5121 
  56   0.0000       0.686605        18.6835 
  57   0.0000       0.721124        19.6228 
  58   0.0000       0.782833        21.3020 
  59   0.0000       0.798021        21.7153 

                    ********************************
                    * MULLIKEN POPULATION ANALYSIS *
                    ********************************

-----------------------
MULLIKEN ATOMIC CHARGES
-----------------------
   0 C :   -0.004317
   1 C :   -0.004317
   2 C :   -0.076530
   3 C :   -0.076530
   4 C :   -0.076892
   5 C :   -0.076892
   6 H :    0.077763
   7 H :    0.077763
   8 H :    0.079094
   9 H :    0.079094
  10 C :   -0.076156
  11 C :   -0.076156
  12 H :    0.076471
  13 H :    0.076471
  14 C :   -0.154408
  15 C :   -0.154408
  16 H :    0.075905
  17 H :    0.075905
  18 H :    0.079070
  19 H :    0.079070
Sum of atomic charges:    0.0000000

--------------------------------
MULLIKEN REDUCED ORBITAL CHARGES
--------------------------------
  0 C s       :     3.136792  s :     3.136792
      pz      :     0.993369  p :     2.867525
      px      :     0.929480
      py      :     0.944676
  1 C s       :     3.136792  s :     3.136792
      pz      :     0.993369  p :     2.867525
      px      :     0.929480
      py      :     0.944676
  2 C s       :     3.150911  s :     3.150911
      pz      :     1.001386  p :     2.925619
      px      :     0.950892
      py      :     0.973340
  3 C s       :     3.150911  s :     3.150911
      pz      :     1.001386  p :     2.925619
      px      :     0.950892
      py      :     0.973340
  4 C s       :     3.148697  s :     3.148697
      pz      :     1.000940  p :     2.928195
      px      :     0.961706
      py      :     0.965549
  5 C s       :     3.148697  s :     3.148697
      pz      :     1.000940  p :     2.928195
      px      :     0.961706
      py      :     0.965549
  6 H s       :     0.922237  s :     0.922237
  7 H s       :     0.922237  s :     0.922237
  8 H s       :     0.920906  s :     0.920906
  9 H s       :     0.920906  s :     0.920906
 10 C s       :     3.153848  s :     3.153848
      pz      :     0.997919  p :     2.922308
      px      :     0.935609
      py      :     0.988780
 11 C s       :     3.153848  s :     3.153848
      pz      :     0.997919  p :     2.922308
      px      :     0.935609
      py      :     0.988780
 12 H s       :     0.923529  s :     0.923529
 13 H s       :     0.923529  s :     0.923529
 14 C s       :     3.168894  s :     3.168894
      pz      :     1.006386  p :     2.985515
      px      :     0.987929
      py      :     0.991200
 15 C s       :     3.168894  s :     3.168894
      pz      :     1.006386  p :     2.985515
      px      :     0.987929
      py      :     0.991200
 16 H s       :     0.924095  s :     0.924095
 17 H s       :     0.924095  s :     0.924095
 18 H s       :     0.920930  s :     0.920930
 19 H s       :     0.920930  s :     0.920930


                     *******************************
                     * LOEWDIN POPULATION ANALYSIS *
                     *******************************

----------------------
LOEWDIN ATOMIC CHARGES
----------------------
   0 C :    0.003798
   1 C :    0.003798
   2 C :   -0.043793
   3 C :   -0.043793
   4 C :   -0.044042
   5 C :   -0.044042
   6 H :    0.042052
   7 H :    0.042052
   8 H :    0.043587
   9 H :    0.043587
  10 C :   -0.038838
  11 C :   -0.038838
  12 H :    0.040882
  13 H :    0.040882
  14 C :   -0.091407
  15 C :   -0.091407
  16 H :    0.042885
  17 H :    0.042885
  18 H :    0.044876
  19 H :    0.044876

-------------------------------
LOEWDIN REDUCED ORBITAL CHARGES
-------------------------------
  0 C s       :     3.032289  s :     3.032289
      pz      :     0.992462  p :     2.963914
      px      :     0.975453
      py      :     0.995999
  1 C s       :     3.032289  s :     3.032289
      pz      :     0.992462  p :     2.963914
      px      :     0.975453
      py      :     0.995999
  2 C s       :     3.031768  s :     3.031768
      pz      :     1.001698  p :     3.012025
      px      :     1.003525
      py      :     1.006802
  3 C s       :     3.031768  s :     3.031768
      pz      :     1.001698  p :     3.012025
      px      :     1.003525
      py      :     1.006802
  4 C s       :     3.029429  s :     3.029429
      pz      :     1.001346  p :     3.014613
      px      :     1.007446
      py      :     1.005821
  5 C s       :     3.029429  s :     3.029429
      pz      :     1.001346  p :     3.014613
      px      :     1.007446
      py      :     1.005821
  6 H s       :     0.957948  s :     0.957948
  7 H s       :     0.957948  s :     0.957948
  8 H s       :     0.956413  s :     0.956413
  9 H s       :     0.956413  s :     0.956413
 10 C s       :     3.033535  s :     3.033535
      pz      :     0.997296  p :     3.005303
      px      :     0.986366
      py      :     1.021641
 11 C s       :     3.033535  s :     3.033535
      pz      :     0.997296  p :     3.005303
      px      :     0.986366
      py      :     1.021641
 12 H s       :     0.959118  s :     0.959118
 13 H s       :     0.959118  s :     0.959118
 14 C s       :     3.033102  s :     3.033102
      pz      :     1.007197  p :     3.058305
      px      :     1.025356
      py      :     1.025752
 15 C s       :     3.033102  s :     3.033102
      pz      :     1.007197  p :     3.058305
      px      :     1.025356
      py      :     1.025752
 16 H s       :     0.957115  s :     0.957115
 17 H s       :     0.957115  s :     0.957115
 18 H s       :     0.955124  s :     0.955124
 19 H s       :     0.955124  s :     0.955124


                      *****************************
                      * MAYER POPULATION ANALYSIS *
                      *****************************

  NA   - Mulliken gross atomic population
  ZA   - Total nuclear charge
  QA   - Mulliken gross atomic charge
  VA   - Mayer's total valence
  BVA  - Mayer's bonded valence
  FA   - Mayer's free valence

  ATOM       NA         ZA         QA         VA         BVA        FA
  0 C      6.0043     6.0000    -0.0043     3.9731     3.9731     0.0000
  1 C      6.0043     6.0000    -0.0043     3.9731     3.9731     0.0000
  2 C      6.0765     6.0000    -0.0765     3.9693     3.9693    -0.0000
  3 C      6.0765     6.0000    -0.0765     3.9693     3.9693    -0.0000
  4 C      6.0769     6.0000    -0.0769     3.9701     3.9701    -0.0000
  5 C      6.0769     6.0000    -0.0769     3.9701     3.9701    -0.0000
  6 H      0.9222     1.0000     0.0778     0.9940     0.9940    -0.0000
  7 H      0.9222     1.0000     0.0778     0.9940     0.9940    -0.0000
  8 H      0.9209     1.0000     0.0791     0.9937     0.9937     0.0000
  9 H      0.9209     1.0000     0.0791     0.9937     0.9937    -0.0000
 10 C      6.0762     6.0000    -0.0762     3.9681     3.9681     0.0000
 11 C      6.0762     6.0000    -0.0762     3.9681     3.9681    -0.0000
 12 H      0.9235     1.0000     0.0765     0.9942     0.9942     0.0000
 13 H      0.9235     1.0000     0.0765     0.9942     0.9942     0.0000
 14 C      6.1544     6.0000    -0.1544     3.9648     3.9648     0.0000
 15 C      6.1544     6.0000    -0.1544     3.9648     3.9648     0.0000
 16 H      0.9241     1.0000     0.0759     0.9942     0.9942     0.0000
 17 H      0.9241     1.0000     0.0759     0.9942     0.9942    -0.0000
 18 H      0.9209     1.0000     0.0791     0.9937     0.9937     0.0000
 19 H      0.9209     1.0000     0.0791     0.9937     0.9937     0.0000

  Mayer bond orders larger than 0.100000
B(  0-C ,  2-C ) :   1.3631 B(  0-C ,  5-C ) :   1.3652 B(  0-C , 11-C ) :   1.0664 
B(  1-C ,  3-C ) :   1.3631 B(  1-C ,  4-C ) :   1.3652 B(  1-C , 10-C ) :   1.0664 
B(  2-C ,  4-C ) :   1.4652 B(  2-C ,  6-H ) :   0.9614 B(  3-C ,  5-C ) :   1.4652 
B(  3-C ,  7-H ) :   0.9614 B(  4-C ,  5-C ) :   0.1022 B(  4-C ,  8-H ) :   0.9595 
B(  5-C ,  9-H ) :   0.9595 B( 10-C , 12-H ) :   0.9592 B( 10-C , 14-C ) :   1.9013 
B( 11-C , 13-H ) :   0.9592 B( 11-C , 15-C ) :   1.9013 B( 14-C , 16-H ) :   0.9664 
B( 14-C , 18-H ) :   0.9693 B( 15-C , 17-H ) :   0.9664 B( 15-C , 19-H ) :   0.9693 


-------
TIMINGS
-------

Total SCF time: 0 days 0 hours 0 min 7 sec 

Total time                  ....       7.138 sec
Sum of individual times     ....       7.055 sec  ( 98.8%)

Fock matrix formation       ....       6.253 sec  ( 87.6%)
  Split-RI-J                ....       0.678 sec  ( 10.8% of F)
  Chain of spheres X        ....       4.371 sec  ( 69.9% of F)
  XC integration            ....       1.206 sec  ( 19.3% of F)
    Basis function eval.    ....       0.626 sec  ( 51.9% of XC)
    Density eval.           ....       0.168 sec  ( 13.9% of XC)
    XC-Functional eval.     ....       0.232 sec  ( 19.2% of XC)
    XC-Potential eval.      ....       0.082 sec  (  6.8% of XC)
Diagonalization             ....       0.007 sec  (  0.1%)
Density matrix formation    ....       0.001 sec  (  0.0%)
Population analysis         ....       0.002 sec  (  0.0%)
Initial guess               ....       0.047 sec  (  0.7%)
Orbital Transformation      ....       0.000 sec  (  0.0%)
Orbital Orthonormalization  ....       0.000 sec  (  0.0%)
DIIS solution               ....       0.007 sec  (  0.1%)
SOSCF solution              ....       0.007 sec  (  0.1%)
Grid generation             ....       0.733 sec  ( 10.3%)

Maximum memory used throughout the entire SCF-calculation: 49.4 MB

-------------------------   --------------------
FINAL SINGLE POINT ENERGY      -382.055108639253
-------------------------   --------------------



           ************************************************************
           *        Program running with 4 parallel MPI-processes     *
           *              working on a common directory               *
           ************************************************************
------------------------------------------------------------------------------
                         ORCA SCF GRADIENT CALCULATION
------------------------------------------------------------------------------

 ... reading COSX grid (gridx3)
Gradient of the Kohn-Sham DFT energy:
Kohn-Sham wavefunction type      ... RKS
Hartree-Fock exchange scaling    ...    0.200
Number of operators              ...    1
Number of atoms                  ...   20
Basis set dimensions             ...   60
Integral neglect threshold       ... 2.5e-11
Integral primitive cutoff        ... 2.5e-12
SHARK Integral package           ... ON

Nuc. rep. gradient       (SHARK) ... done (  0.0 sec)
HCore & Overlap gradient (SHARK) ... done (  0.0 sec)
RI-J gradient            (SHARK) ... done (  0.2 sec)
COSX-gradient                    ... done (  0.9 sec)
Exchange-correlation gradient    ... done

------------------
CARTESIAN GRADIENT
------------------

   1   C   :    0.000743453    0.000204807    0.000000000
   2   C   :   -0.000743447   -0.000204809    0.000000001
   3   C   :   -0.001185940    0.000205581   -0.000000001
   4   C   :    0.001185936   -0.000205571    0.000000000
   5   C   :   -0.000258765    0.001262662   -0.000000002
   6   C   :    0.000258762   -0.001262662   -0.000000001
   7   H   :    0.000181934    0.000009088   -0.000000000
   8   H   :   -0.000181934   -0.000009089    0.000000000
   9   H   :    0.000176958   -0.000884919    0.000000000
  10   H   :   -0.000176959    0.000884919   -0.000000000
  11   C   :   -0.000570636    0.000534247    0.000000000
  12   C   :    0.000570640   -0.000534246    0.000000001
  13   H   :    0.000476448   -0.000155477    0.000000000
  14   H   :   -0.000476448    0.000155477   -0.000000000
  15   C   :   -0.000037916   -0.000269416   -0.000000001
  16   C   :    0.000037920    0.000269415    0.000000000
  17   H   :   -0.000352236   -0.000221744   -0.000000000
  18   H   :    0.000352234    0.000221743   -0.000000000
  19   H   :    0.000244826   -0.000098055    0.000000000
  20   H   :   -0.000244823    0.000098055   -0.000000000

Difference to translation invariance:
           :    0.0000000076    0.0000000053   -0.0000000027

Difference to rotation invariance:
           :   -0.0000000060    0.0000000053   -0.0003610608

Norm of the cartesian gradient     ...    0.0033856362
RMS gradient                       ...    0.0004370838
MAX gradient                       ...    0.0012626621

-------
TIMINGS
-------

Total SCF gradient time            ...        1.920 sec

One electron gradient       ....       0.023 sec  (  1.2%)
RI-J Coulomb gradient       ....       0.163 sec  (  8.5%)
COSX gradient               ....       0.928 sec  ( 48.3%)
XC gradient                 ....       0.669 sec  ( 34.9%)

Maximum memory used throughout the entire SCFGRAD-calculation: 37.6 MB

                            ***************************************
                            *     ORCA property calculations      *
                            ***************************************

                                    ---------------------
                                    Active property flags
                                    ---------------------
   (+) Dipole Moment
   (+) Polarizability


------------------------------------------------------------------------------
                       ORCA ELECTRIC PROPERTIES CALCULATION
------------------------------------------------------------------------------

Dipole Moment Calculation                       ... on
Quadrupole Moment Calculation                   ... off
Polarizability Calculation                      ... Analytic (CP-SCF)
GBWName                                         ... dvb_raman.gbw
Electron density file                           ... dvb_raman.scfp
The origin for moment calculation is the CENTER OF MASS  = ( 0.000000,  0.000000  0.000000)

-------------
DIPOLE MOMENT
-------------
                                X             Y             Z
Electronic contribution:      0.00000      -0.00000       0.00000
Nuclear contribution   :      0.00000       0.00000       0.00000
                        -----------------------------------------
Total Dipole Moment    :      0.00000      -0.00000       0.00000
                        -----------------------------------------
Magnitude (a.u.)       :      0.00000
Magnitude (Debye)      :      0.00000



--------------------
Rotational spectrum 
--------------------
 
Rotational constants in cm-1:     0.153923     0.022856     0.019901 
Rotational constants in MHz :  4614.497946   685.205544   596.614430 

 Dipole components along the rotational axes: 
x,y,z [a.u.] :    -0.000000    -0.000000     0.000000 
x,y,z [Debye]:    -0.000000    -0.000000     0.000000 

 
Transforming and storing MO dipole integrals   ... done

                ... starting polarizability calculation

The origin for moment calculation is the CENTER OF MASS  = ( 0.000000,  0.000000  0.000000)
Opening the Dipole integral file               ... (dvb_raman.dmo.tmp) done
Reading Dipole-MO integrals                    ... done
Solving CP-SCF equations                       ... 

           ************************************************************
           *        Program running with 4 parallel MPI-processes     *
           *              working on a common directory               *
           ************************************************************

------------------------------------------------------------------------------
                           ORCA CP-SCF CALCULATION
------------------------------------------------------------------------------

Input orbitals are from        ... dvb_raman.gbw
Input Perturbation             ... dvb_raman.cpv.tmp
Wavefunction output            ... dvb_raman.cpu.tmp
Perturbation mode              ... Real perturbation (singlet)
Solver                         ... POPLE
Max. number of iterations      ... 64
Convergence tolerance          ... 1.000e-04
Integral handling              ... Direct
DFT GridXC                     ... 1
COSX GridX                     ... 1
COSX IntAccX                   ... 3.067
COSX Algorithm                 ... Auto
Number of perturbations        ... 3
Number of operators            ... 1
Orbital ranges used for CP-SCF:
 Operator 0:  Orbitals   0... 34  to  35... 59
Variables per perturbation     ... 875
DFT calculation                         ... on
XC functional terms                     ... on
Exchange functional (SCF)               ... B88
Exchange functional (CP-SCF)            ... B88
   X-Alpha parameter    XAlpha (SCF)    ...  0.666667
   X-Alpha parameter    XAlpha (CP-SCF) ...  0.666667
   Becke's b parameter  XBeta (SCF)     ...  0.004200
   Becke's b parameter  XBeta (CP-SCF)  ...  0.004200
Correlation functional (SCF)            ... LYP
Correlation functional (CP-SCF)         ... LYP
 LDA part of GGA corr.  LDAOpt (SCF)    ... VWN-5
 LDA part of GGA corr.  LDAOpt (CP-SCF) ... VWN-5
Hybrid DFT                              ... on
   Exchange mixing (SCF)                ...  0.200
   Exchange mixing (CP-SCF)             ...  0.200
   GGA exch. scaling(SCF)               ...  0.720
   GGA exch. scaling (CP-SCF)           ...  0.720
   GGA corr. scaling (SCF)              ...  0.810
   GGA corr. scaling (CP-SCF)           ...  0.810

CP-SCF GRID
-----------

General Integration Accuracy     IntAcc      ... 3.467
Radial Grid Type                 RadialGrid  ... OptM3 with GC (2021)
Angular Grid (max. ang.)         AngularGrid ... 1 (Lebedev-50)
Angular grid pruning method      GridPruning ... 4 (adaptive)
Weight generation scheme         WeightScheme... Becke
Basis function cutoff            BFCut       ... 1.0000e-11
Integration weight cutoff        WCut        ... 1.0000e-14
Angular grids for H and He will be reduced by one unit
Partially contracted basis set               ... off
Rotationally invariant grid construction     ... off

Total number of grid points                  ...    13388
Total number of batches                      ...      218
Average number of points per batch           ...       61
Average number of grid points per atom       ...      669

CP-SCF GRIDX
------------

General Integration Accuracy     IntAcc      ... 3.067
Radial Grid Type                 RadialGrid  ... OptM3 with GC (2021)
Angular Grid (max. ang.)         AngularGrid ... 1 (Lebedev-50)
Angular grid pruning method      GridPruning ... 4 (adaptive)
Weight generation scheme         WeightScheme... Becke
Basis function cutoff            BFCut       ... 1.0000e-11
Integration weight cutoff        WCut        ... 1.0000e-14
Angular grids for H and He will be reduced by one unit
Partially contracted basis set               ... on
Rotationally invariant grid construction     ... off

Total number of grid points                  ...     6208
Total number of batches                      ...      110
Average number of points per batch           ...       56
Average number of grid points per atom       ...      310

Recalculating density on grid  ... done
Calculating the xc-kernel      ... done
Memory available               ... 1019.5 MB
Memory needed per perturbation ...   0.4 MB
Perturbations treated per batch... 3
Number of batches              ... 1
     CP-SCF ITERATION   0:   1.5232e+01 (   0.4 sec   0/  3 done)
     CP-SCF ITERATION   1:   5.5071e-01 (   0.3 sec   0/  3 done)
     CP-SCF ITERATION   2:   1.9169e-01 (   0.3 sec   0/  3 done)
     CP-SCF ITERATION   3:   7.6055e-02 (   0.3 sec   1/  3 done)
     CP-SCF ITERATION   4:   1.7743e-02 (   0.3 sec   1/  3 done)
     CP-SCF ITERATION   5:   6.0958e-03 (   0.3 sec   1/  3 done)
     CP-SCF ITERATION   6:   6.8782e-04 (   0.3 sec   1/  3 done)
     CP-SCF ITERATION   7:   2.3359e-04 (   0.3 sec   2/  3 done)
     CP-SCF ITERATION   8:   3.9687e-05 (   0.3 sec   3/  3 done)
                    *** THE CP-SCF HAS CONVERGED ***
done
Reading CP-SCF coefficients                    ... done
Doing the polarizability tensor                ... done
Cleaning up                                    ... done

-------------------------
THE POLARIZABILITY TENSOR
-------------------------

The raw cartesian tensor (atomic units):
  142.42107      8.85437      0.00000  
    8.85437     68.69870      0.00000  
    0.00000      0.00000     11.34863  
diagonalized tensor: 
   11.34863     67.65017    143.46960  

   -0.00000     -0.11760     -0.99306  
   -0.00000      0.99306     -0.11760  
    1.00000      0.00000     -0.00000  

Isotropic polarizability :  74.15613


----------------------------------------------------------------------------
                           ORCA NUMERICAL FREQUENCIES
                              (4-process run)
----------------------------------------------------------------------------

Number of atoms                ... 20
Central differences            ... used
Number of displacements        ... 120
Numerical increment            ... 5.000e-03 bohr
IR-spectrum generation         ... on
Raman-spectrum generation      ... on
Polarizability calculation     ... 1
Surface Crossing Hessian       ... off

The output will be reduced. Please look at the following files:
SCF program output             ... >dvb_raman.lastscf
Integral program output        ... >dvb_raman.lastint
Gradient program output        ... >dvb_raman.lastgrad
Dipole moment program output   ... >dvb_raman.lastmom
AutoCI program output          ... >dvb_raman.lastautoci

	<< Calculating on displaced geometry   3 (of 120) >>
	<< Calculating on displaced geometry   2 (of 120) >>
	<< Calculating on displaced geometry   4 (of 120) >>
	<< Calculating on displaced geometry   1 (of 120) >>
	<< Calculating on displaced geometry   7 (of 120) >>
	<< Calculating on displaced geometry   6 (of 120) >>
	<< Calculating on displaced geometry   5 (of 120) >>
	<< Calculating on displaced geometry   8 (of 120) >>
	<< Calculating on displaced geometry   9 (of 120) >>
	<< Calculating on displaced geometry  10 (of 120) >>
	<< Calculating on displaced geometry  11 (of 120) >>
	<< Calculating on displaced geometry  12 (of 120) >>
	<< Calculating on displaced geometry  13 (of 120) >>
	<< Calculating on displaced geometry  14 (of 120) >>
	<< Calculating on displaced geometry  15 (of 120) >>
	<< Calculating on displaced geometry  16 (of 120) >>
	<< Calculating on displaced geometry  17 (of 120) >>
	<< Calculating on displaced geometry  18 (of 120) >>
	<< Calculating on displaced geometry  19 (of 120) >>
	<< Calculating on displaced geometry  20 (of 120) >>
	<< Calculating on displaced geometry  21 (of 120) >>
	<< Calculating on displaced geometry  22 (of 120) >>
	<< Calculating on displaced geometry  23 (of 120) >>
	<< Calculating on displaced geometry  24 (of 120) >>
	<< Calculating on displaced geometry  25 (of 120) >>
	<< Calculating on displaced geometry  26 (of 120) >>
	<< Calculating on displaced geometry  27 (of 120) >>
	<< Calculating on displaced geometry  28 (of 120) >>
	<< Calculating on displaced geometry  29 (of 120) >>
	<< Calculating on displaced geometry  30 (of 120) >>
	<< Calculating on displaced geometry  31 (of 120) >>
	<< Calculating on displaced geometry  32 (of 120) >>
	<< Calculating on displaced geometry  33 (of 120) >>
	<< Calculating on displaced geometry  34 (of 120) >>
	<< Calculating on displaced geometry  35 (of 120) >>
	<< Calculating on displaced geometry  36 (of 120) >>
	<< Calculating on displaced geometry  37 (of 120) >>
	<< Calculating on displaced geometry  38 (of 120) >>
	<< Calculating on displaced geometry  39 (of 120) >>
	<< Calculating on displaced geometry  40 (of 120) >>
	<< Calculating on displaced geometry  41 (of 120) >>
	<< Calculating on displaced geometry  42 (of 120) >>
	<< Calculating on displaced geometry  43 (of 120) >>
	<< Calculating on displaced geometry  44 (of 120) >>
	<< Calculating on displaced geometry  45 (of 120) >>
	<< Calculating on displaced geometry  46 (of 120) >>
	<< Calculating on displaced geometry  47 (of 120) >>
	<< Calculating on displaced geometry  48 (of 120) >>
	<< Calculating on displaced geometry  49 (of 120) >>
	<< Calculating on displaced geometry  50 (of 120) >>
	<< Calculating on displaced geometry  51 (of 120) >>
	<< Calculating on displaced geometry  52 (of 120) >>
	<< Calculating on displaced geometry  53 (of 120) >>
	<< Calculating on displaced geometry  54 (of 120) >>
	<< Calculating on displaced geometry  55 (of 120) >>
	<< Calculating on displaced geometry  56 (of 120) >>
	<< Calculating on displaced geometry  57 (of 120) >>
	<< Calculating on displaced geometry  58 (of 120) >>
	<< Calculating on displaced geometry  59 (of 120) >>
	<< Calculating on displaced geometry  60 (of 120) >>
	<< Calculating on displaced geometry  61 (of 120) >>
	<< Calculating on displaced geometry  62 (of 120) >>
	<< Calculating on displaced geometry  63 (of 120) >>
	<< Calculating on displaced geometry  64 (of 120) >>
	<< Calculating on displaced geometry  65 (of 120) >>
	<< Calculating on displaced geometry  66 (of 120) >>
	<< Calculating on displaced geometry  68 (of 120) >>
	<< Calculating on displaced geometry  67 (of 120) >>
	<< Calculating on displaced geometry  69 (of 120) >>
	<< Calculating on displaced geometry  70 (of 120) >>
	<< Calculating on displaced geometry  71 (of 120) >>
	<< Calculating on displaced geometry  72 (of 120) >>
	<< Calculating on displaced geometry  73 (of 120) >>
	<< Calculating on displaced geometry  74 (of 120) >>
	<< Calculating on displaced geometry  75 (of 120) >>
	<< Calculating on displaced geometry  76 (of 120) >>
	<< Calculating on displaced geometry  77 (of 120) >>
	<< Calculating on displaced geometry  78 (of 120) >>
	<< Calculating on displaced geometry  79 (of 120) >>
	<< Calculating on displaced geometry  80 (of 120) >>
	<< Calculating on displaced geometry  81 (of 120) >>
	<< Calculating on displaced geometry  82 (of 120) >>
	<< Calculating on displaced geometry  83 (of 120) >>
	<< Calculating on displaced geometry  84 (of 120) >>
	<< Calculating on displaced geometry  85 (of 120) >>
	<< Calculating on displaced geometry  86 (of 120) >>
	<< Calculating on displaced geometry  87 (of 120) >>
	<< Calculating on displaced geometry  88 (of 120) >>
	<< Calculating on displaced geometry  89 (of 120) >>
	<< Calculating on displaced geometry  90 (of 120) >>
	<< Calculating on displaced geometry  91 (of 120) >>
	<< Calculating on displaced geometry  92 (of 120) >>
	<< Calculating on displaced geometry  93 (of 120) >>
	<< Calculating on displaced geometry  94 (of 120) >>
	<< Calculating on displaced geometry  95 (of 120) >>
	<< Calculating on displaced geometry  96 (of 120) >>
	<< Calculating on displaced geometry  97 (of 120) >>
	<< Calculating on displaced geometry  98 (of 120) >>
	<< Calculating on displaced geometry  99 (of 120) >>
	<< Calculating on displaced geometry 100 (of 120) >>
	<< Calculating on displaced geometry 101 (of 120) >>
	<< Calculating on displaced geometry 102 (of 120) >>
	<< Calculating on displaced geometry 103 (of 120) >>
	<< Calculating on displaced geometry 104 (of 120) >>
	<< Calculating on displaced geometry 105 (of 120) >>
	<< Calculating on displaced geometry 106 (of 120) >>
	<< Calculating on displaced geometry 107 (of 120) >>
	<< Calculating on displaced geometry 108 (of 120) >>
	<< Calculating on displaced geometry 109 (of 120) >>
	<< Calculating on displaced geometry 110 (of 120) >>
	<< Calculating on displaced geometry 111 (of 120) >>
	<< Calculating on displaced geometry 112 (of 120) >>
	<< Calculating on displaced geometry 113 (of 120) >>
	<< Calculating on displaced geometry 114 (of 120) >>
	<< Calculating on displaced geometry 115 (of 120) >>
	<< Calculating on displaced geometry 116 (of 120) >>
	<< Calculating on displaced geometry 117 (of 120) >>
	<< Calculating on displaced geometry 118 (of 120) >>
	<< Calculating on displaced geometry 119 (of 120) >>
	<< Calculating on displaced geometry 120 (of 120) >>

-----------------------
VIBRATIONAL FREQUENCIES
-----------------------

Scaling factor for frequencies =  1.000000000 (already applied!)

   0:         0.00 cm**-1
   1:         0.00 cm**-1
   2:         0.00 cm**-1
   3:         0.00 cm**-1
   4:         0.00 cm**-1
   5:         0.00 cm**-1
   6:        77.70 cm**-1
   7:       121.66 cm**-1
   8:       179.68 cm**-1
   9:       184.49 cm**-1
  10:       263.20 cm**-1
  11:       315.73 cm**-1
  12:       408.03 cm**-1
  13:       434.10 cm**-1
  14:       478.14 cm**-1
  15:       485.40 cm**-1
  16:       577.36 cm**-1
  17:       666.01 cm**-1
  18:       673.19 cm**-1
  19:       716.92 cm**-1
  20:       734.44 cm**-1
  21:       813.44 cm**-1
  22:       861.49 cm**-1
  23:       899.45 cm**-1
  24:       900.88 cm**-1
  25:       983.87 cm**-1
  26:       984.00 cm**-1
  27:      1021.32 cm**-1
  28:      1039.54 cm**-1
  29:      1073.17 cm**-1
  30:      1100.98 cm**-1
  31:      1109.04 cm**-1
  32:      1110.27 cm**-1
  33:      1110.41 cm**-1
  34:      1202.36 cm**-1
  35:      1260.41 cm**-1
  36:      1285.07 cm**-1
  37:      1295.36 cm**-1
  38:      1350.13 cm**-1
  39:      1397.68 cm**-1
  40:      1421.28 cm**-1
  41:      1426.79 cm**-1
  42:      1513.54 cm**-1
  43:      1564.05 cm**-1
  44:      1573.55 cm**-1
  45:      1638.91 cm**-1
  46:      1689.55 cm**-1
  47:      1737.78 cm**-1
  48:      1813.70 cm**-1
  49:      1814.69 cm**-1
  50:      3393.54 cm**-1
  51:      3394.38 cm**-1
  52:      3430.83 cm**-1
  53:      3430.95 cm**-1
  54:      3447.46 cm**-1
  55:      3450.24 cm**-1
  56:      3470.61 cm**-1
  57:      3473.08 cm**-1
  58:      3546.05 cm**-1
  59:      3546.07 cm**-1


------------
NORMAL MODES
------------

These modes are the cartesian displacements weighted by the diagonal matrix
M(i,i)=1/sqrt(m[i]) where m[i] is the mass of the displaced atom
Thus, these vectors are normalized but *not* orthogonal

                  0          1          2          3          4          5    
      0       0.000000   0.000000   0.000000   0.000000   0.000000   0.000000
      1       0.000000   0.000000   0.000000   0.000000   0.000000   0.000000
      2       0.000000   0.000000   0.000000   0.000000   0.000000   0.000000
      3       0.000000   0.000000   0.000000   0.000000   0.000000   0.000000
      4       0.000000   0.000000   0.000000   0.000000   0.000000   0.000000
      5       0.000000   0.000000   0.000000   0.000000   0.000000   0.000000
      6       0.000000   0.000000   0.000000   0.000000   0.000000   0.000000
      7       0.000000   0.000000   0.000000   0.000000   0.000000   0.000000
      8       0.000000   0.000000   0.000000   0.000000   0.000000   0.000000
      9       0.000000   0.000000   0.000000   0.000000   0.000000   0.000000
     10       0.000000   0.000000   0.000000   0.000000   0.000000   0.000000
     11       0.000000   0.000000   0.000000   0.000000   0.000000   0.000000
     12       0.000000   0.000000   0.000000   0.000000   0.000000   0.000000
     13       0.000000   0.000000   0.000000   0.000000   0.000000   0.000000
     14       0.000000   0.000000   0.000000   0.000000   0.000000   0.000000
     15       0.000000   0.000000   0.000000   0.000000   0.000000   0.000000
     16       0.000000   0.000000   0.000000   0.000000   0.000000   0.000000
     17       0.000000   0.000000   0.000000   0.000000   0.000000   0.000000
     18       0.000000   0.000000   0.000000   0.000000   0.000000   0.000000
     19       0.000000   0.000000   0.000000   0.000000   0.000000   0.000000
     20       0.000000   0.000000   0.000000   0.000000   0.000000   0.000000
     21       0.000000   0.000000   0.000000   0.000000   0.000000   0.000000
     22       0.000000   0.000000   0.000000   0.000000   0.000000   0.000000
     23       0.000000   0.000000   0.000000   0.000000   0.000000   0.000000
     24       0.000000   0.000000   0.000000   0.000000   0.000000   0.000000
     25       0.000000   0.000000   0.000000   0.000000   0.000000   0.000000
     26       0.000000   0.000000   0.000000   0.000000   0.000000   0.000000
     27       0.000000   0.000000   0.000000   0.000000   0.000000   0.000000
     28       0.000000   0.000000   0.000000   0.000000   0.000000   0.000000
     29       0.000000   0.000000   0.000000   0.000000   0.000000   0.000000
     30       0.000000   0.000000   0.000000   0.000000   0.000000   0.000000
     31       0.000000   0.000000   0.000000   0.000000   0.000000   0.000000
     32       0.000000   0.000000   0.000000   0.000000   0.000000   0.000000
     33       0.000000   0.000000   0.000000   0.000000   0.000000   0.000000
     34       0.000000   0.000000   0.000000   0.000000   0.000000   0.000000
     35       0.000000   0.000000   0.000000   0.000000   0.000000   0.000000
     36       0.000000   0.000000   0.000000   0.000000   0.000000   0.000000
     37       0.000000   0.000000   0.000000   0.000000   0.000000   0.000000
     38       0.000000   0.000000   0.000000   0.000000   0.000000   0.000000
     39       0.000000   0.000000   0.000000   0.000000   0.000000   0.000000
     40       0.000000   0.000000   0.000000   0.000000   0.000000   0.000000
     41       0.000000   0.000000   0.000000   0.000000   0.000000   0.000000
     42       0.000000   0.000000   0.000000   0.000000   0.000000   0.000000
     43       0.000000   0.000000   0.000000   0.000000   0.000000   0.000000
     44       0.000000   0.000000   0.000000   0.000000   0.000000   0.000000
     45       0.000000   0.000000   0.000000   0.000000   0.000000   0.000000
     46       0.000000   0.000000   0.000000   0.000000   0.000000   0.000000
     47       0.000000   0.000000   0.000000   0.000000   0.000000   0.000000
     48       0.000000   0.000000   0.000000   0.000000   0.000000   0.000000
     49       0.000000   0.000000   0.000000   0.000000   0.000000   0.000000
     50       0.000000   0.000000   0.000000   0.000000   0.000000   0.000000
     51       0.000000   0.000000   0.000000   0.000000   0.000000   0.000000
     52       0.000000   0.000000   0.000000   0.000000   0.000000   0.000000
     53       0.000000   0.000000   0.000000   0.000000   0.000000   0.000000
     54       0.000000   0.000000   0.000000   0.000000   0.000000   0.000000
     55       0.000000   0.000000   0.000000   0.000000   0.000000   0.000000
     56       0.000000   0.000000   0.000000   0.000000   0.000000   0.000000
     57       0.000000   0.000000   0.000000   0.000000   0.000000   0.000000
     58       0.000000   0.000000   0.000000   0.000000   0.000000   0.000000
     59       0.000000   0.000000   0.000000   0.000000   0.000000   0.000000
                  6          7          8          9         10         11    
      0       0.000000   0.000000  -0.020220  -0.000000  -0.042804  -0.000000
      1      -0.000000  -0.000001   0.104169   0.000003  -0.120050   0.000001
      2       0.093350  -0.100156  -0.000002  -0.014587  -0.000000   0.176784
      3       0.000000   0.000000  -0.020220  -0.000001   0.042804   0.000000
      4       0.000000  -0.000002   0.104169   0.000000   0.120050  -0.000000
      5       0.093356   0.100153   0.000003  -0.014588  -0.000000  -0.176782
      6      -0.000000   0.000000  -0.026000   0.000000  -0.098544   0.000000
      7       0.000000  -0.000001   0.113641   0.000002  -0.063904   0.000001
      8       0.127802   0.036430   0.000002  -0.066215  -0.000001   0.122428
      9       0.000000   0.000000  -0.026001  -0.000001   0.098544  -0.000000
     10       0.000000  -0.000002   0.113641   0.000001   0.063904   0.000000
     11       0.127801  -0.036435   0.000001  -0.066214  -0.000001  -0.122430
     12      -0.000000   0.000000  -0.012748   0.000000  -0.067139   0.000000
     13       0.000000  -0.000002   0.111819   0.000001   0.079971  -0.000000
     14       0.122844   0.142075   0.000005  -0.080484  -0.000002  -0.091532
     15       0.000000  -0.000000  -0.012748  -0.000001   0.067138  -0.000000
     16       0.000000  -0.000001   0.111819   0.000003  -0.079971   0.000001
     17       0.122836  -0.142081  -0.000000  -0.080482  -0.000002   0.091534
     18      -0.000000   0.000001  -0.026759   0.000001  -0.185120   0.000001
     19       0.000000  -0.000001   0.114419   0.000003  -0.095895   0.000001
     20       0.130762   0.074138   0.000001  -0.049055   0.000000   0.186225
     21       0.000000  -0.000000  -0.026761  -0.000003   0.185119  -0.000001
     22       0.000000  -0.000002   0.114418   0.000001   0.095895  -0.000000
     23       0.130760  -0.074143   0.000000  -0.049054   0.000001  -0.186229
     24      -0.000000   0.000000  -0.006024   0.000001  -0.146636   0.000000
     25       0.000000  -0.000002   0.109272   0.000000   0.147616  -0.000000
     26       0.125930   0.261722   0.000007  -0.071627  -0.000002  -0.113592
     27       0.000000  -0.000000  -0.006025  -0.000002   0.146636  -0.000000
     28       0.000000  -0.000001   0.109273   0.000003  -0.147616   0.000001
     29       0.125918  -0.261730  -0.000003  -0.071623  -0.000002   0.113593
     30      -0.000000   0.000001  -0.052611  -0.000001   0.042342   0.000001
     31      -0.000000   0.000001  -0.056023  -0.000001   0.055125  -0.000000
     32      -0.017364   0.140725  -0.000002   0.181945   0.000003   0.066216
     33       0.000000   0.000000  -0.052612  -0.000000  -0.042342  -0.000001
     34      -0.000000   0.000001  -0.056023  -0.000001  -0.055124  -0.000000
     35      -0.017370  -0.140720  -0.000007   0.181947   0.000003  -0.066216
     36      -0.000000   0.000004  -0.216468  -0.000001  -0.085758   0.000001
     37      -0.000000   0.000001  -0.095274  -0.000001   0.023587  -0.000000
     38       0.104003   0.379406  -0.000009   0.518110   0.000007   0.410612
     39       0.000000   0.000003  -0.216468  -0.000004   0.085757  -0.000002
     40      -0.000000   0.000001  -0.095274  -0.000001  -0.023587  -0.000000
     41       0.103988  -0.379399  -0.000017   0.518116   0.000006  -0.410614
     42      -0.000000  -0.000001   0.103741   0.000000   0.201632   0.000001
     43      -0.000000   0.000003  -0.232027  -0.000002  -0.118049  -0.000000
     44      -0.288705  -0.153761  -0.000002  -0.032647  -0.000001   0.022309
     45      -0.000000  -0.000001   0.103741   0.000003  -0.201631  -0.000000
     46       0.000000   0.000003  -0.232027  -0.000005   0.118048  -0.000001
     47      -0.288698   0.153770   0.000003  -0.032649   0.000000  -0.022310
     48      -0.000000  -0.000004   0.295929   0.000001   0.411964   0.000002
     49      -0.000000   0.000003  -0.198143  -0.000002  -0.080015  -0.000000
     50      -0.440156  -0.436502   0.000004  -0.397822  -0.000006  -0.334257
     51      -0.000001  -0.000003   0.295929   0.000008  -0.411960   0.000001
     52       0.000000   0.000003  -0.198144  -0.000004   0.080015  -0.000001
     53      -0.440138   0.436508   0.000016  -0.397829  -0.000004   0.334257
     54      -0.000000  -0.000000   0.046728  -0.000000   0.140044   0.000001
     55       0.000000   0.000006  -0.425722  -0.000003  -0.330516  -0.000001
     56      -0.372446  -0.128557  -0.000007   0.143222   0.000002   0.335534
     57      -0.000000  -0.000000   0.046728   0.000002  -0.140044  -0.000001
     58       0.000001   0.000005  -0.425723  -0.000009   0.330514  -0.000002
     59      -0.372438   0.128571   0.000002   0.143220  -0.000000  -0.335537
                 12         13         14         15         16         17    
      0       0.134260   0.000000   0.000001  -0.059261  -0.115630   0.000000
      1      -0.136465  -0.000002   0.000000  -0.042109  -0.064808   0.000000
      2      -0.000000  -0.016994   0.200802   0.000004  -0.000000   0.044811
      3      -0.134259  -0.000001   0.000000  -0.059264   0.115629  -0.000000
      4       0.136466   0.000001   0.000001  -0.042110   0.064807   0.000000
      5      -0.000002  -0.016992   0.200804   0.000004  -0.000000  -0.044811
[...]
      2       0.000000   0.000000  -0.000000  -0.000000  -0.000000  -0.000000
      3       0.002137  -0.001662  -0.000031   0.002144   0.000338  -0.000340
      4       0.001199  -0.002705  -0.003887  -0.001516   0.000157  -0.000168
      5       0.000000   0.000000  -0.000000  -0.000000  -0.000000   0.000000
      6       0.018843   0.019415  -0.012115  -0.011435  -0.000042   0.000079
      7      -0.053712  -0.054144   0.023786   0.023242  -0.000003  -0.000107
      8      -0.000000  -0.000000  -0.000000   0.000000   0.000000   0.000000
      9       0.018843  -0.019414  -0.012118   0.011432  -0.000041  -0.000080
     10      -0.053713   0.054143   0.023792  -0.023237  -0.000005   0.000107
     11       0.000000   0.000000  -0.000000  -0.000000  -0.000000   0.000000
     12       0.012760   0.012306   0.037616   0.037951   0.000273  -0.000389
     13       0.020409   0.019103   0.044215   0.044904   0.000345  -0.000455
     14       0.000000  -0.000000   0.000000  -0.000000  -0.000000  -0.000000
     15       0.012760  -0.012306   0.037624  -0.037943   0.000269   0.000392
     16       0.020409  -0.019103   0.044224  -0.044894   0.000339   0.000459
     17      -0.000000  -0.000000   0.000000  -0.000000  -0.000000  -0.000000
     18      -0.225018  -0.227183   0.100208   0.094991   0.000108  -0.000297
     19       0.603621   0.608708  -0.263607  -0.251778  -0.000533   0.000739
     20       0.000000   0.000000  -0.000000  -0.000000  -0.000000  -0.000000
     21      -0.225020   0.227178   0.100230  -0.094972   0.000105   0.000298
     22       0.603628  -0.608696  -0.263666   0.251728  -0.000524  -0.000746
     23      -0.000000  -0.000000   0.000000   0.000000  -0.000000   0.000000
     24      -0.177356  -0.170359  -0.406533  -0.409852  -0.003830   0.004920
     25      -0.221495  -0.211468  -0.500849  -0.505386  -0.005333   0.006606
     26       0.000000  -0.000000   0.000000   0.000000  -0.000000  -0.000000
     27      -0.177361   0.170362  -0.406614   0.409769  -0.003774  -0.004963
     28      -0.221502   0.211472  -0.500948   0.505283  -0.005257  -0.006665
     29       0.000000   0.000000   0.000000  -0.000000   0.000000  -0.000000
     30       0.000336   0.000282   0.000085  -0.000038  -0.000726   0.000717
     31      -0.001610  -0.001314   0.000408   0.000714   0.003325  -0.003308
     32      -0.000000   0.000000   0.000000  -0.000000   0.000000  -0.000000
     33       0.000336  -0.000282   0.000085   0.000038  -0.000718  -0.000725
     34      -0.001610   0.001314   0.000408  -0.000713   0.003287   0.003346
     35      -0.000000  -0.000000   0.000000  -0.000000   0.000000   0.000000
     36      -0.005608  -0.002947  -0.000295  -0.000117   0.007048  -0.007009
     37       0.018917   0.015063  -0.001389  -0.005192  -0.038399   0.038140
     38      -0.000000  -0.000000  -0.000000   0.000000   0.000000  -0.000000
     39      -0.005608   0.002948  -0.000295   0.000118   0.006968   0.007090
     40       0.018916  -0.015070  -0.001390   0.005188  -0.037960  -0.038579
     41      -0.000000  -0.000000  -0.000000  -0.000000  -0.000000  -0.000000
     42       0.000975   0.000687   0.001067   0.000988  -0.047179   0.046630
     43       0.000655   0.000186  -0.000235  -0.000455   0.053275  -0.052667
     44      -0.000000   0.000000  -0.000000   0.000000   0.000000   0.000000
     45       0.000975  -0.000687   0.001067  -0.000988  -0.046641  -0.047168
     46       0.000656  -0.000186  -0.000235   0.000455   0.052667   0.053274
     47      -0.000000   0.000000  -0.000000   0.000000  -0.000000  -0.000000
     48       0.002159   0.000715   0.000584   0.000019   0.085389  -0.084422
     49      -0.010550  -0.004224  -0.003492  -0.000298  -0.496316   0.490726
     50       0.000000   0.000000   0.000000   0.000000   0.000000   0.000000
     51       0.002160  -0.000716   0.000585  -0.000019   0.084415   0.085395
     52      -0.010553   0.004227  -0.003494   0.000298  -0.490656  -0.496384
     53       0.000000   0.000000  -0.000000  -0.000000  -0.000000  -0.000000
     54      -0.011824  -0.005831  -0.011179  -0.010970   0.475323  -0.469800
     55       0.003420   0.001856   0.003295   0.002981  -0.139775   0.138143
     56       0.000000   0.000000   0.000000  -0.000000  -0.000000   0.000000
     57      -0.011826   0.005833  -0.011182   0.010969   0.469905   0.475220
     58       0.003421  -0.001857   0.003296  -0.002980  -0.138182  -0.139736
     59       0.000000   0.000000   0.000000  -0.000000   0.000000   0.000000


-----------
IR SPECTRUM
-----------

 Mode   freq       eps      Int      T**2         TX        TY        TZ
       cm**-1   L/(mol*cm) km/mol    a.u.
----------------------------------------------------------------------------
  6:     77.70   0.000015    0.08  0.000062  ( 0.000000  0.000000 -0.007878)
  7:    121.66   0.000000    0.00  0.000000  ( 0.000000  0.000000  0.000000)
  8:    179.68   0.000082    0.41  0.000142  (-0.011457 -0.003212 -0.000000)
  9:    184.49   0.000051    0.26  0.000085  (-0.000000  0.000000  0.009243)
 10:    263.20   0.000000    0.00  0.000000  (-0.000000 -0.000000  0.000000)
 11:    315.73   0.000000    0.00  0.000000  (-0.000000  0.000000 -0.000000)
 12:    408.03   0.000000    0.00  0.000000  ( 0.000000  0.000000  0.000000)
 13:    434.10   0.000017    0.09  0.000012  (-0.000000 -0.000000  0.003515)
 14:    478.14   0.001164    5.88  0.000760  ( 0.000000  0.000000 -0.027559)
 15:    485.40   0.000383    1.94  0.000246  (-0.014796 -0.005223 -0.000000)
 16:    577.36   0.000000    0.00  0.000000  ( 0.000000 -0.000000  0.000000)
 17:    666.01   0.000000    0.00  0.000000  (-0.000000  0.000000 -0.000000)
 18:    673.19   0.000000    0.00  0.000000  ( 0.000000  0.000000  0.000000)
 19:    716.92   0.000075    0.38  0.000033  ( 0.000000 -0.000000  0.005704)
 20:    734.44   0.000730    3.69  0.000310  ( 0.017581  0.001124 -0.000000)
 21:    813.44   0.000000    0.00  0.000000  ( 0.000000 -0.000000 -0.000000)
 22:    861.49   0.000000    0.00  0.000000  (-0.000000  0.000000  0.000000)
 23:    899.45   0.000000    0.00  0.000000  ( 0.000000  0.000000 -0.000011)
 24:    900.88   0.005374   27.16  0.001861  ( 0.000000 -0.000000 -0.043144)
 25:    983.87   0.000000    0.00  0.000000  (-0.000000  0.000000 -0.000001)
 26:    984.00   0.007303   36.91  0.002316  (-0.000000 -0.000000  0.048125)
 27:   1021.32   0.000000    0.00  0.000000  (-0.000000  0.000000 -0.000000)
 28:   1039.54   0.000001    0.00  0.000000  (-0.000000 -0.000000  0.000495)
 29:   1073.17   0.000154    0.78  0.000045  ( 0.006318  0.002195 -0.000000)
 30:   1100.98   0.001599    8.08  0.000453  ( 0.020809 -0.004500  0.000001)
 31:   1109.04   0.000000    0.00  0.000000  (-0.000001  0.000000  0.000003)
 32:   1110.27   0.002633   13.31  0.000740  (-0.000001  0.000000  0.027205)
 33:   1110.41   0.000000    0.00  0.000000  ( 0.000000  0.000000  0.000001)
 34:   1202.36   0.000497    2.51  0.000129  ( 0.008167  0.007890 -0.000000)
 35:   1260.41   0.000000    0.00  0.000000  (-0.000000  0.000000 -0.000000)
 36:   1285.07   0.000043    0.22  0.000010  (-0.000470 -0.003197 -0.000000)
 37:   1295.36   0.000000    0.00  0.000000  (-0.000000  0.000000  0.000000)
 38:   1350.13   0.001842    9.31  0.000426  ( 0.020607 -0.000999  0.000000)
 39:   1397.68   0.000000    0.00  0.000000  (-0.000000 -0.000000  0.000000)
 40:   1421.28   0.001714    8.66  0.000376  (-0.018625 -0.005420 -0.000000)
 41:   1426.79   0.000000    0.00  0.000000  ( 0.000001  0.000000  0.000000)
 42:   1513.54   0.003775   19.08  0.000778  (-0.005538  0.027345 -0.000000)
 43:   1564.05   0.000000    0.00  0.000000  (-0.000000 -0.000000  0.000000)
 44:   1573.55   0.000008    0.04  0.000002  (-0.000886  0.000882 -0.000000)
 45:   1638.91   0.003090   15.62  0.000588  ( 0.024076  0.002953  0.000000)
 46:   1689.55   0.000000    0.00  0.000000  (-0.000000 -0.000000 -0.000000)
 47:   1737.78   0.000000    0.00  0.000000  (-0.000000  0.000000 -0.000000)
 48:   1813.70   0.000000    0.00  0.000000  ( 0.000000  0.000000  0.000000)
 49:   1814.69   0.000219    1.10  0.000038  ( 0.000338  0.006122  0.000000)
 50:   3393.54   0.018724   94.62  0.001722  ( 0.040383  0.009539  0.000000)
 51:   3394.38   0.000000    0.00  0.000000  ( 0.000006  0.000002 -0.000000)
 52:   3430.83   0.000000    0.00  0.000000  (-0.000008  0.000002 -0.000000)
 53:   3430.95   0.001211    6.12  0.000110  (-0.010145  0.002692 -0.000000)
 54:   3447.46   0.000131    0.66  0.000012  (-0.000312  0.003428  0.000000)
 55:   3450.24   0.000000    0.00  0.000000  ( 0.000000  0.000000  0.000000)
 56:   3470.61   0.000851    4.30  0.000077  (-0.003065 -0.008196  0.000000)
 57:   3473.08   0.000000    0.00  0.000000  (-0.000000 -0.000001  0.000000)
 58:   3546.05   0.000010    0.05  0.000001  (-0.000915 -0.000018  0.000000)
 59:   3546.07   0.000000    0.00  0.000000  (-0.000005 -0.000000  0.000000)

* The epsilon (eps) is given for a Dirac delta lineshape.
** The dipole moment derivative (T) already includes vibrational overlap.

--------------
RAMAN SPECTRUM  
--------------

 Mode    freq (cm**-1)   Activity   Depolarization
-------------------------------------------------------------------
   6:        77.70      0.000000      0.716534
   7:       121.66      2.498442      0.750000
   8:       179.68      0.000000      0.747112
   9:       184.49      0.000000      0.563916
  10:       263.20      7.649875      0.390264
  11:       315.73      2.055612      0.750000
  12:       408.03      1.395842      0.203141
  13:       434.10      0.000000      0.267932
  14:       478.14      0.000000      0.344114
  15:       485.40      0.000000      0.434090
  16:       577.36      9.697442      0.331023
  17:       666.01     12.221027      0.750000
  18:       673.19      7.767832      0.709348
  19:       716.92      0.000000      0.749839
  20:       734.44      0.000000      0.200830
  21:       813.44     12.564191      0.750000
  22:       861.49      8.685231      0.165451
  23:       899.45      5.216732      0.750000
  24:       900.88      0.000000      0.749771
  25:       983.87      2.484431      0.750000
  26:       984.00      0.000000      0.694938
  27:      1021.32      5.433396      0.750000
  28:      1039.54      0.000000      0.360063
  29:      1073.17      0.000000      0.669644
  30:      1100.98      0.000000      0.196185
  31:      1109.04     15.726495      0.226762
  32:      1110.27      0.000000      0.232270
  33:      1110.41      1.893067      0.750000
  34:      1202.36      0.000000      0.217811
  35:      1260.41    174.034970      0.230044
  36:      1285.07      0.000000      0.218192
  37:      1295.36    125.178794      0.333786
  38:      1350.13      0.000000      0.533611
  39:      1397.68     16.862036      0.703363
  40:      1421.28      0.000000      0.286485
  41:      1426.79     65.436104      0.299412
  42:      1513.54      0.000000      0.368940
  43:      1564.05    335.291763      0.338764
  44:      1573.55      0.000001      0.330860
  45:      1638.91      0.000000      0.329962
  46:      1689.55     26.536477      0.419968
  47:      1737.78   1037.104624      0.396167
  48:      1813.70    516.259159      0.285449
  49:      1814.69      0.000002      0.285105
  50:      3393.54      0.000001      0.187868
  51:      3394.38     68.967055      0.192374
  52:      3430.83    107.305529      0.249567
  53:      3430.95      0.000067      0.252513
  54:      3447.46      0.000000      0.693833
  55:      3450.24     68.035730      0.534315
  56:      3470.61      0.000001      0.204610
  57:      3473.08     96.656094      0.211677
  58:      3546.05      0.004444      0.599201
  59:      3546.07    135.206617      0.599084

The first frequency considered to be a vibration is 6
The total number of vibrations considered is 54


--------------------------
THERMOCHEMISTRY AT 298.15K
--------------------------

Temperature         ... 298.15 K
Pressure            ... 1.00 atm
Total Mass          ... 130.19 AMU

Throughout the following assumptions are being made:
  (1) The electronic state is orbitally nondegenerate
  (2) There are no thermally accessible electronically excited states
  (3) Hindered rotations indicated by low frequency modes are not
      treated as such but are treated as vibrations and this may
      cause some error
  (4) All equations used are the standard statistical mechanics
      equations for an ideal gas
  (5) All vibrations are strictly harmonic

freq.      77.70  E(vib)   ...       0.49 
freq.     121.66  E(vib)   ...       0.44 
freq.     179.68  E(vib)   ...       0.37 
freq.     184.49  E(vib)   ...       0.37 
freq.     263.20  E(vib)   ...       0.29 
freq.     315.73  E(vib)   ...       0.25 
freq.     408.03  E(vib)   ...       0.19 
freq.     434.10  E(vib)   ...       0.17 
freq.     478.14  E(vib)   ...       0.15 
freq.     485.40  E(vib)   ...       0.15 
freq.     577.36  E(vib)   ...       0.11 
freq.     666.01  E(vib)   ...       0.08 
freq.     673.19  E(vib)   ...       0.08 
freq.     716.92  E(vib)   ...       0.07 
freq.     734.44  E(vib)   ...       0.06 
freq.     813.44  E(vib)   ...       0.05 
freq.     861.49  E(vib)   ...       0.04 
freq.     899.45  E(vib)   ...       0.03 
freq.     900.88  E(vib)   ...       0.03 
freq.     983.87  E(vib)   ...       0.02 
freq.     984.00  E(vib)   ...       0.02 
freq.    1021.32  E(vib)   ...       0.02 
freq.    1039.54  E(vib)   ...       0.02 
freq.    1073.17  E(vib)   ...       0.02 
freq.    1100.98  E(vib)   ...       0.02 
freq.    1109.04  E(vib)   ...       0.02 
freq.    1110.27  E(vib)   ...       0.02 
freq.    1110.41  E(vib)   ...       0.02 
freq.    1202.36  E(vib)   ...       0.01 
freq.    1260.41  E(vib)   ...       0.01 
freq.    1285.07  E(vib)   ...       0.01 
freq.    1295.36  E(vib)   ...       0.01 
freq.    1350.13  E(vib)   ...       0.01 
freq.    1397.68  E(vib)   ...       0.00 
freq.    1421.28  E(vib)   ...       0.00 
freq.    1426.79  E(vib)   ...       0.00 
freq.    1513.54  E(vib)   ...       0.00 
freq.    1564.05  E(vib)   ...       0.00 
freq.    1573.55  E(vib)   ...       0.00 
freq.    1638.91  E(vib)   ...       0.00 
freq.    1689.55  E(vib)   ...       0.00 
freq.    1737.78  E(vib)   ...       0.00 
freq.    1813.70  E(vib)   ...       0.00 
freq.    1814.69  E(vib)   ...       0.00 
freq.    3393.54  E(vib)   ...       0.00 
freq.    3394.38  E(vib)   ...       0.00 
freq.    3430.83  E(vib)   ...       0.00 
freq.    3430.95  E(vib)   ...       0.00 
freq.    3447.46  E(vib)   ...       0.00 
freq.    3450.24  E(vib)   ...       0.00 
freq.    3470.61  E(vib)   ...       0.00 
freq.    3473.08  E(vib)   ...       0.00 
freq.    3546.05  E(vib)   ...       0.00 
freq.    3546.07  E(vib)   ...       0.00 

------------
INNER ENERGY
------------

The inner energy is: U= E(el) + E(ZPE) + E(vib) + E(rot) + E(trans)
    E(el)   - is the total energy from the electronic structure calculation
              = E(kin-el) + E(nuc-el) + E(el-el) + E(nuc-nuc)
    E(ZPE)  - the the zero temperature vibrational energy from the frequency calculation
    E(vib)  - the the finite temperature correction to E(ZPE) due to population
              of excited vibrational states
    E(rot)  - is the rotational thermal energy
    E(trans)- is the translational thermal energy

Summary of contributions to the inner energy U:
Electronic energy                ...   -382.05510864 Eh
Zero point energy                ...      0.17745097 Eh     111.35 kcal/mol
Thermal vibrational correction   ...      0.00582281 Eh       3.65 kcal/mol
Thermal rotational correction    ...      0.00141627 Eh       0.89 kcal/mol
Thermal translational correction ...      0.00141627 Eh       0.89 kcal/mol
-----------------------------------------------------------------------
Total thermal energy                   -381.86900231 Eh


Summary of corrections to the electronic energy:
(perhaps to be used in another calculation)
Total thermal correction                  0.00865536 Eh       5.43 kcal/mol
Non-thermal (ZPE) correction              0.17745097 Eh     111.35 kcal/mol
-----------------------------------------------------------------------
Total correction                          0.18610633 Eh     116.78 kcal/mol


--------
ENTHALPY
--------

The enthalpy is H = U + kB*T
                kB is Boltzmann's constant
Total free energy                 ...   -381.86900231 Eh 
Thermal Enthalpy correction       ...      0.00094421 Eh       0.59 kcal/mol
-----------------------------------------------------------------------
Total Enthalpy                    ...   -381.86805810 Eh


Note: Rotational entropy computed according to Herzberg 
Infrared and Raman Spectra, Chapter V,1, Van Nostrand Reinhold, 1945 
Point Group:  C2h, Symmetry Number:   2  
Rotational constants in cm-1:     0.153923     0.022856     0.019901 

Vibrational entropy computed according to the QRRHO of S. Grimme
Chem.Eur.J. 2012 18 9955


-------
ENTROPY
-------

The entropy contributions are T*S = T*(S(el)+S(vib)+S(rot)+S(trans))
     S(el)   - electronic entropy
     S(vib)  - vibrational entropy
     S(rot)  - rotational entropy
     S(trans)- translational entropy
The entropies will be listed as multiplied by the temperature to get
units of energy

Electronic entropy                ...      0.00000000 Eh      0.00 kcal/mol
Vibrational entropy               ...      0.00967502 Eh      6.07 kcal/mol
Rotational entropy                ...      0.01337276 Eh      8.39 kcal/mol
Translational entropy             ...      0.01924489 Eh     12.08 kcal/mol
-----------------------------------------------------------------------
Final entropy term                ...      0.04229268 Eh     26.54 kcal/mol

In case the symmetry of your molecule has not been determined correctly
or in case you have a reason to use a different symmetry number we print 
out the resulting rotational entropy values for sn=1,12 :
 --------------------------------------------------------
|  sn= 1 | S(rot)=       0.01402722 Eh      8.80 kcal/mol|
|  sn= 2 | S(rot)=       0.01337276 Eh      8.39 kcal/mol|
|  sn= 3 | S(rot)=       0.01298993 Eh      8.15 kcal/mol|
|  sn= 4 | S(rot)=       0.01271831 Eh      7.98 kcal/mol|
|  sn= 5 | S(rot)=       0.01250762 Eh      7.85 kcal/mol|
|  sn= 6 | S(rot)=       0.01233548 Eh      7.74 kcal/mol|
|  sn= 7 | S(rot)=       0.01218993 Eh      7.65 kcal/mol|
|  sn= 8 | S(rot)=       0.01206385 Eh      7.57 kcal/mol|
|  sn= 9 | S(rot)=       0.01195264 Eh      7.50 kcal/mol|
|  sn=10 | S(rot)=       0.01185316 Eh      7.44 kcal/mol|
|  sn=11 | S(rot)=       0.01176317 Eh      7.38 kcal/mol|
|  sn=12 | S(rot)=       0.01168102 Eh      7.33 kcal/mol|
 --------------------------------------------------------


-------------------
GIBBS FREE ENERGY
-------------------

The Gibbs free energy is G = H - T*S

Total enthalpy                    ...   -381.86805810 Eh 
Total entropy correction          ...     -0.04229268 Eh    -26.54 kcal/mol
-----------------------------------------------------------------------
Final Gibbs free energy         ...   -381.91035078 Eh

For completeness - the Gibbs free energy minus the electronic energy
G-E(el)                           ...      0.14475786 Eh     90.84 kcal/mol



Timings for individual modules:

Sum of individual times         ...      929.592 sec (=  15.493 min)
GTO integral calculation        ...        2.810 sec (=   0.047 min)   0.3 %
SCF iterations                  ...       16.597 sec (=   0.277 min)   1.8 %
Solution of CP-SCF eqns.        ...        4.623 sec (=   0.077 min)   0.5 %
SCF Gradient evaluation         ...        6.436 sec (=   0.107 min)   0.7 %
Numerical frequency calculation ...      899.126 sec (=  14.985 min)  96.7 %
                             ****ORCA TERMINATED NORMALLY****
TOTAL RUN TIME: 0 days 0 hours 15 minutes 18 seconds 268 msec
