(INPUT FILE)
Create H file=/adf/atomicdata/SZ/H
XC
 GGA Blyp
End
End Input

 *******************************************************************************
 *                                                                             *
 *  -------------------------------------                                      *
 *   Amsterdam Density Functional  (ADF)         2004.01   June 8, 2004        *
 *  -------------------------------------                                      *
 *                                               Build 200410211341            *
 *                                                                             *
 *                                                                             *
 *                              =================                              *
 *                              |               |                              *
 *                              |     A D F     |                              *
 *                              |               |                              *
 *                              =================                              *
 *                                                                             *
 *                                                                             *
 *   Online information and documentation:  http://www.scm.com                 *
 *   E-mail:  support@scm.com   info@scm.com                                   *
 *                                                                             *
 *   Scientific publications using ADF results must be properly referenced     *
 *   See the User Manuals (or the web site) for recommended citations          *
 *                                                                             *
 ****************************  pentium_linux_ifc  ******************************
 
 ADF 2004.01  RunTime: Mar21-2006 10:02:50
 Hydrogen (I)



 ===========================
 A T T A C H E D   F I L E S
 ===========================
  
 CREATE - Data File:    /adf/atomicdata/SZ/H
                        Hydrogen (I)



 ===============================
 M O D E L   P A R A M E T E R S
 ===============================
  
 DENSITY FUNCTIONAL POTENTIAL (scf)
    LDA:                               Exchange only                           == Not Default ==
    Gradient Corrections:              Becke88 LYP                             == Not Default ==

 SPIN  (restricted / unrestr.)
    Molecule:                          Restricted                               

 OTHER ASPECTS
    Relativistic Corrections:          ---                                      
    Core Treatment:                    Frozen Orbital(s)                        

    Electric Field:                    ---                                      

    Hyperfine or Zeeman Interaction:   ---                                      



 =====================================
 S Y M M E T R Y ,   E L E C T R O N S
 =====================================
  
 Symmetry: ATOM

 Irreducible Representations, including subspecies
 -------------------------------------------------
 S
 P:x  P:y  P:z
 D:z2  D:x2-y2  D:xy  D:xz  D:yz
 F:z3  F:z  F:xyz  F:z2x  F:z2y  F:x  F:y


 Configuration of Valence Electrons
 ==================================

          Occupation Numbers
          -------------------------------------------------
 S        1
 P        0
 D        0
 F        0
          -------------------------------------------------

 Total:   1

 Net Charge: 0 (Nuclei minus Electrons)

 Preset values for MO occupations will be applied through SCF cycle no. 1000000
 Thereafter, the program will assign electrons to MOs that are spatially
 similar to the occupied MOs in a "reference" cycle ("KeepOrbitals").
 The reference cycle is always the PREVIOUS cycle: it will evolve with
 the SCF procedure.



 ================================
 (Slater-type)  F U N C T I O N S  ***  (Basis and Fit)  ***
 ================================
  

 Atom Type    1  (H)
 ==============

 Valence Basis Sets:   1
 -----------------------
   1 S    1.240000

 Charge Fitting Sets (for the computation of the Coulomb Potential):  11
 -----------------------------------------------------------------------
   1 S    3.160000
   1 S    2.090000
   1 S    1.380000
   2 S    1.500000
   2 P    4.000000
   2 P    2.650000
   2 P    1.750000
   3 D    4.000000
   3 D    2.500000
   4 F    3.000000
   5 G    4.000000


 BAS: List of all Elementary Cartesian Basis Functions
 =====================================================

 The numbering in the list below (to the right of the function characteristics) is referred
 to in print-outs of MO eigenvectors and Mulliken populations in the BAS representation
 (as contrasted to the SFO representation).

 Notes:
 1. The functions are characterized by a polynomial prefactor (powers of x,y,z and r) and
    an exponential decay factor alpha.
 2. Since the basis sets are specific for an atom TYPE, the individual functions occur on
    all atoms of that type.
 3. The word 'Core' in the left margin signals that it is a Core Function (CF) : not a
    degree of freedom in the valence set, but only used to ensure orthogonalization of
    the other valence basis functions on the frozen Core Orbitals.


 (power of) X  Y  Z  R     Alpha  on Atom
            ==========     =====     ==========

 H                                    1
                                  ---------------------------------------------------------------------------
            0  0  0  0     1.240      1
1
 ***************************************************************************************************



                                              ***********************
                                              *  T E C H N I C A L  *
                                              ***********************
  



 =============================================================
 P A R A L L E L I Z A T I O N  and  V E C T O R I Z A T I O N
 =============================================================
  
 Nr of parallel processes:                                1
 Internal max. (compile-time) nr of processes:          128
 Maximum vector length in NumInt loops:                 128



 ===============
 I O  vs.  C P U  ***  (store numerical data on disk or recalculate)  ***
 ===============
  
 Basis functions:   recalculate when needed
 Fit functions:     recalculate when needed

 IO buffersize (Mb):                                      8.000000

 Max memory usage (Mb):                                  80.000000
 Dynamic allocation blocks (Mb):
   Reals:                                                 1.000000
   Integers:                                              0.500000
   Logicals:                                              0.031250
   Strings:                                               1.500000



 =====================
 S C F   U P D A T E S
 =====================
  
 Max. nr. of cycles:                               100
 Convergence criterion:                              0.0000000100
   secondary criterion:                              0.0000000100

 Mix parameter (when DIIS does not apply):           0.2000000000
 Special mix parameter for the first cycle:          1.0000000000


 DIIS (Direct Inversion in Iteration Space)
    Replace damping when SCF Error is below:         0.5000000000
    Apply anyway after SCF cycle:
                                                     5
    (Max.) nr. of expansion vectors:                10

    Upperbound on expansion coefficients:            5.0000000000
    (when exceeded, IterationSpace is re-built)
    2nd Upperbound on coefficients:                 25.0000000000
    (when exceeded, simple damping will be used)
 Automatic ElectronSmearing (in case of problematic SCF convergence) disabled



 =================
 P R E C I S I O N  ***  (General: NumInt, NeglectFunctionTails, ...)  ***
 =================
  

 NumInt:           Target precision:                10.0000000000
 -------           Initial precision:               10.0000000000
                   Min. precision (optimization):   10.0000000000

 Neglect Functions:          Basis functions:        0.1000000000E-11
 ------------------          Fit functions:          0.1000000000E-11



 ===========================
 L I N E A R   S C A L I N G
 ===========================
  

 Cut-off radii density fit:                        0.1000000000E-13
 Overlap cut-off criterion AO matrix elements:     0.1000000000E-11
 Cut-offs for Coulomb potential and fitted density:0.1000000000E-13
 Cut-off criterion for Coulomb multipole terms:    0.1000000000E-13
1
 ***************************************************************************************************



                                            ***************************
                                            *  C O M P U T A T I O N  *
                                            ***************************
  

 Number of elements of the density matrix on this node (used, total):         1         1



 ====================================================
 Numerical Integration : Voronoi Polyhedra (Te Velde)  ***  (parameters, tests)  ***
 ====================================================
  
 General Accuracy Parameter :                         10.00

 Symmetry used in the points section:  ATOM  


 Summary of the Symmetry Unique Points:
 --------------------------------------
    Nr. of used Symmetry Operators                     1

    Points in the Atomic Spheres                      34
    Points in the Atomic Polyhedra                     0
    Points in the Outer Region                         0
    ----------------------------------------------------
    Total                                             34

    Sum of Weights                                 33854.777883

 Total nr. of points:         34
 Nr. of blocks:                1
 Block length:                34
 Nr. of dummy points:          0


 Test of Precision of the Numerical Integration Grid
 ===================================================

 Integral of the Total Core Density:                   0.00000000000000



 =====
 S C F
 =====
  

 CYCLE    1
 orbitals (Q,E):
 ---------------
 S :1...1            ( 1.00    -0.1216)   

 CYCLE    2
 d-Pmat  mean:  0.00E+00
 imax=      1:  0.00E+00
 orbitals (Q,E):
 ---------------
 S :1...1            ( 1.00    -0.1216)   

 SCF CONVERGED

 CYCLE    3
1
 ***************************************************************************************************



                                                *******************
                                                *  R E S U L T S  *
                                                *******************
  

 Orbital Energies, per Irrep and Spin:
 ======================================
                        Occup              E (au)              E (eV)       Diff (eV) with prev. cycle
                        -----      --------------------        ------       --------------------------
 S
               1        1.000     -0.12163331707834E+00        -3.310               0.00E+00


 Partially Occupied:
               1 S                -0.12163331707834E+00
  


 Orbital Energies of the Core Orbitals:
 ======================================
 (Note that the atoms are grouped by atomtype, see the labels, and may hence NOT be in input order)

 AtomType  Orbital  Atom                   E (au)                        E (eV)
 --------  -------  ----           --------------------        ----------------



 =======================================
 M U L L I K E N   P O P U L A T I O N S
 =======================================
  
 The survey below gives for each atom:
 a) the total charge (Z minus electrons)
 b) the net spin polarization (nr of electrons spin-A minus spin-B)
 c) for each spin the atomic electron valence density (integrated) per L-value.

 Atom              Charge    Spin density          S         P         D         F
 ----              ------    ------------       ------    ------    ------    ------
 1 H               0.0000                       1.0000    0.0000    0.0000    0.0000

 Populations of individual BAS functions
 ----------------------------------------
 1 H            1.0000

 Gross Charges per Atom (Z minus electrons)
 ==========================================
             0.0000
 Net Total:  0.00000000


 Atom-Atom Population Matrix (off-diagonal elements not doubled)
 ===============================================================

     1 :     1.0000



 =============
 Dipole Moment  ***  (Debye)  ***
 =============
  
 Vector   :         0.00000000      0.00000000      0.00000000
 Magnitude:         0.00000000

 This molecular dipole moment is calculated with analytic integration



 =========================================
 Quadrupole Moment (Buckingham convention)  ***  (a.u.)  ***
 =========================================
  
      quad-xx        quad-xy        quad-xz        quad-yy        quad-yz        quad-zz
      0.00000000     0.00000000     0.00000000     0.00000000     0.00000000     0.00000000

 This molecular quadrupole moment is calculated with analytic integration



 ===============================================================================
 Electrostatic potential at the Nuclei due to valence electrons and other nuclei
 ===============================================================================
  
         Atom                  Potential
         ----                  ---------
     1)   H                   1.23926638
 
 
 ========================
 No memory problems found
 ========================
 
 Maximum number of active allocate calls:          26
 
 *******************************************************************************

                             A D F   E X I T
 NORMAL TERMINATION



 =================
 Timing Statistics
 =================
  
 Total Used :                     CPU=        0.14      System=        0.04     Elapsed=        0.38

 Calls  Section                     ( Mean, Percentage )
 ---------------------------------------------------------------------------------------------------
     3  ><      ................      0.00    0.00             0.00   25.00             0.00    2.57
     1  INIT    ................      0.02   14.29             0.00    0.00             0.03    6.58
     1  GEOMET  ................      0.01    7.14             0.02   50.00             0.05   14.17
     1  INPUTA  ................      0.01    7.14             0.00    0.00             0.02    4.24
     1  MAINSY  ................      0.01    7.14             0.00    0.00             0.01    2.71
     1  SYMFIT  ................      0.00    0.00             0.00    0.00             0.00    0.48
     1  CORORT  ................      0.00    0.00             0.00    0.00             0.00    0.57
     1  SYMORB  ................      0.01    7.14             0.00    0.00             0.00    0.54
     1  FITINT  ................      0.01    7.14             0.00    0.00             0.02    5.29
     1  CLSMAT  ................      0.00    0.00             0.00    0.00             0.00    0.63
     1  ORTHON  ................      0.00    0.00             0.00    0.00             0.00    1.28
     1  CRTP12  ................      0.00    0.00             0.00    0.00             0.01    1.43
     1  ETALOW  ................      0.00    0.00             0.00    0.00             0.00    0.64
     1  GENPT   ................      0.01    7.14             0.00    0.00             0.03    6.67
     1  PTCOR   ................      0.00    0.00             0.00    0.00             0.01    1.43
     1  PTBAS   ................      0.00    0.00             0.00    0.00             0.01    1.83
     4  FOCK00  ................      0.00    0.00             0.00   25.00             0.01    9.90
     3  FOCKY   ................      0.01   21.43             0.00    0.00             0.01   11.33
     3  FOCKTR  ................      0.00    7.14             0.00    0.00             0.00    1.70
     3  FOCKNM  ................      0.00    0.00             0.00    0.00             0.00    0.03
     3  SDIIS   ................      0.00    0.00             0.00    0.00             0.00    2.01
     3  EMERGE  ................      0.00    7.14             0.00    0.00             0.01    4.23
     3  RHOFIH  ................      0.00    0.00             0.00    0.00             0.01    4.35
     1  COREPS  ................      0.00    0.00             0.00    0.00             0.01    1.86
     1  POPAN   ................      0.00    0.00             0.00    0.00             0.01    1.92
     1  DEBYE   ................      0.00    0.00             0.00    0.00             0.00    0.87
     1  QMPOT   ................      0.00    0.00             0.00    0.00             0.00    0.69
     1  EXIT PROCEDURE .........      0.01    7.14             0.00    0.00             0.04   10.09


 Currently Open Files (EXIT00)
 ====================

 Unit    Access Format  Status   Type       Ident (file)
 -------------------------------------------------------
   3      SEQ    FORM   TRANSP  NORMAL      LOGFILE
                                          ( logfile )
   9      SEQ    BINA   LOCAL   NORMAL      $UNKNOWN


 Buffered I/O statistics
 =======================
 Memory available:                      8388608
 Number of records fitting in memory:      2028
 Input :   4.7% of                          571  *4k bytes
 Output:  16.2% of                          604  *4k bytes
 Records from serial files evicted:           0
                    others evicted:           0
 Hash table lookups:       3217 with          0 conflicts (  0.00%)


 Workspace Manager statistics
 ============================
 Allocate  :     308
 Delocate  :      99
 Relocate  :      18
 Extend    :       0
 Find      :      85
 Available :       4
 Check     :       3
 Hide      :       4
 Freeze    :       4
 Print     :       1

 (All arrays delocated)

 ***************************************************************************************************
 (LOGFILE)
 <Mar21-2006> <10:02:50>  ADF 2004.01  RunTime: Mar21-2006 10:02:50
 <Mar21-2006> <10:02:50>  Hydrogen (I)
 <Mar21-2006> <10:02:50>  RunType   : CREATE
 <Mar21-2006> <10:02:50>  Net Charge: 0 (Nuclei minus Electrons)
 <Mar21-2006> <10:02:50>  Symmetry  : ATOM
 <Mar21-2006> <10:02:50>  >>>> CORORT
 <Mar21-2006> <10:02:50>  >>>> FITINT
 <Mar21-2006> <10:02:50>  >>>> CLSMAT
 <Mar21-2006> <10:02:50>  >>>> ORTHON
 <Mar21-2006> <10:02:50>  >>>> CRTP12
 <Mar21-2006> <10:02:50>  >>>> GENPT
 <Mar21-2006> <10:02:50>  Acc.Num.Int.=  10.000
 <Mar21-2006> <10:02:50>  Block Length=  34
 <Mar21-2006> <10:02:50>  >>>> PTCOR
 <Mar21-2006> <10:02:50>  >>>> PTBAS
 <Mar21-2006> <10:02:50>  >>>> CYCLE
 <Mar21-2006> <10:02:50>    1
 <Mar21-2006> <10:02:50>    2  ErrMat   0.00000000  MaxEl  0.00000000
 <Mar21-2006> <10:02:50>  SCF converged
 <Mar21-2006> <10:02:50>    3  ErrMat   0.00000000  MaxEl  0.00000000
 <Mar21-2006> <10:02:50>   Solutions with partially occupied orbitals may not be
 <Mar21-2006> <10:02:50>   lowest in energy. You might consider lowering the
 <Mar21-2006> <10:02:50>   symmetry in the input and explicitly specifying integer
 <Mar21-2006> <10:02:50>   occupations. In that case always check that you obtain
 <Mar21-2006> <10:02:50>   an aufbau solution.
 <Mar21-2006> <10:02:50>  >>>> COREPS
 <Mar21-2006> <10:02:50>  >>>> POPAN
 <Mar21-2006> <10:02:50>  >>>> DEBYE
 <Mar21-2006> <10:02:50>  NORMAL TERMINATION
 <Mar21-2006> <10:02:50>  END
(INPUT FILE)
Create C file=/adf/atomicdata/SZ/C
XC
 GGA Blyp
End
End Input

 *******************************************************************************
 *                                                                             *
 *  -------------------------------------                                      *
 *   Amsterdam Density Functional  (ADF)         2004.01   June 8, 2004        *
 *  -------------------------------------                                      *
 *                                               Build 200410211341            *
 *                                                                             *
 *                                                                             *
 *                              =================                              *
 *                              |               |                              *
 *                              |     A D F     |                              *
 *                              |               |                              *
 *                              =================                              *
 *                                                                             *
 *                                                                             *
 *   Online information and documentation:  http://www.scm.com                 *
 *   E-mail:  support@scm.com   info@scm.com                                   *
 *                                                                             *
 *   Scientific publications using ADF results must be properly referenced     *
 *   See the User Manuals (or the web site) for recommended citations          *
 *                                                                             *
 ****************************  pentium_linux_ifc  ******************************
 
 ADF 2004.01  RunTime: Mar21-2006 10:02:51
 Carbon (I)



 ===========================
 A T T A C H E D   F I L E S
 ===========================
  
 CREATE - Data File:    /adf/atomicdata/SZ/C
                        Carbon (I)



 ===============================
 M O D E L   P A R A M E T E R S
 ===============================
  
 DENSITY FUNCTIONAL POTENTIAL (scf)
    LDA:                               Exchange only                           == Not Default ==
    Gradient Corrections:              Becke88 LYP                             == Not Default ==

 SPIN  (restricted / unrestr.)
    Molecule:                          Restricted                               

 OTHER ASPECTS
    Relativistic Corrections:          ---                                      
    Core Treatment:                    Frozen Orbital(s)                        

    Electric Field:                    ---                                      

    Hyperfine or Zeeman Interaction:   ---                                      



 =====================================
 S Y M M E T R Y ,   E L E C T R O N S
 =====================================
  
 Symmetry: ATOM

 Irreducible Representations, including subspecies
 -------------------------------------------------
 S
 P:x  P:y  P:z
 D:z2  D:x2-y2  D:xy  D:xz  D:yz
 F:z3  F:z  F:xyz  F:z2x  F:z2y  F:x  F:y


 Configuration of Valence Electrons
 ==================================

          Occupation Numbers
          -------------------------------------------------
 S        2*2
 P        2
 D        0
 F        0
          -------------------------------------------------

 Total:   6

 Net Charge: 0 (Nuclei minus Electrons)

 Preset values for MO occupations will be applied through SCF cycle no. 1000000
 Thereafter, the program will assign electrons to MOs that are spatially
 similar to the occupied MOs in a "reference" cycle ("KeepOrbitals").
 The reference cycle is always the PREVIOUS cycle: it will evolve with
 the SCF procedure.



 ================================
 (Slater-type)  F U N C T I O N S  ***  (Basis and Fit)  ***
 ================================
  

 Atom Type    1  (C)
 ==============

 Valence Basis Sets:   3
 -----------------------
   1 S    5.670000
   2 S    1.720000
   2 P    1.720000

 Charge Fitting Sets (for the computation of the Coulomb Potential):  22
 -----------------------------------------------------------------------
   1 S   11.340000
   2 S   13.540000
   2 S    9.660000
   2 S    6.890000
   2 S    4.920000
   3 S    5.130000
   3 S    3.860000
   3 S    2.900000
   3 S    2.180000
   3 S    1.640000
   2 P    7.390000
   2 P    4.710000
   3 P    4.410000
   3 P    3.020000
   3 P    2.060000
   3 D    3.440000
   3 D    2.690000
   3 D    2.100000
   3 D    1.640000
   4 F    5.400000
   4 F    3.550000
   5 G    4.500000


 BAS: List of all Elementary Cartesian Basis Functions
 =====================================================

 The numbering in the list below (to the right of the function characteristics) is referred
 to in print-outs of MO eigenvectors and Mulliken populations in the BAS representation
 (as contrasted to the SFO representation).

 Notes:
 1. The functions are characterized by a polynomial prefactor (powers of x,y,z and r) and
    an exponential decay factor alpha.
 2. Since the basis sets are specific for an atom TYPE, the individual functions occur on
    all atoms of that type.
 3. The word 'Core' in the left margin signals that it is a Core Function (CF) : not a
    degree of freedom in the valence set, but only used to ensure orthogonalization of
    the other valence basis functions on the frozen Core Orbitals.


 (power of) X  Y  Z  R     Alpha  on Atom
            ==========     =====     ==========

 C                                    1
                                  ---------------------------------------------------------------------------
            0  0  0  0     5.670      1
            0  0  0  1     1.720      2
            1  0  0  0     1.720      3
            0  1  0  0     1.720      4
            0  0  1  0     1.720      5
1
 ***************************************************************************************************



                                              ***********************
                                              *  T E C H N I C A L  *
                                              ***********************
  



 =============================================================
 P A R A L L E L I Z A T I O N  and  V E C T O R I Z A T I O N
 =============================================================
  
 Nr of parallel processes:                                1
 Internal max. (compile-time) nr of processes:          128
 Maximum vector length in NumInt loops:                 128



 ===============
 I O  vs.  C P U  ***  (store numerical data on disk or recalculate)  ***
 ===============
  
 Basis functions:   recalculate when needed
 Fit functions:     recalculate when needed

 IO buffersize (Mb):                                      8.000000

 Max memory usage (Mb):                                  80.000000
 Dynamic allocation blocks (Mb):
   Reals:                                                 1.000000
   Integers:                                              0.500000
   Logicals:                                              0.031250
   Strings:                                               1.500000



 =====================
 S C F   U P D A T E S
 =====================
  
 Max. nr. of cycles:                               100
 Convergence criterion:                              0.0000000100
   secondary criterion:                              0.0000000100

 Mix parameter (when DIIS does not apply):           0.2000000000
 Special mix parameter for the first cycle:          1.0000000000


 DIIS (Direct Inversion in Iteration Space)
    Replace damping when SCF Error is below:         0.5000000000
    Apply anyway after SCF cycle:
                                                     5
    (Max.) nr. of expansion vectors:                10

    Upperbound on expansion coefficients:            5.0000000000
    (when exceeded, IterationSpace is re-built)
    2nd Upperbound on coefficients:                 25.0000000000
    (when exceeded, simple damping will be used)
 Automatic ElectronSmearing (in case of problematic SCF convergence) disabled



 =================
 P R E C I S I O N  ***  (General: NumInt, NeglectFunctionTails, ...)  ***
 =================
  

 NumInt:           Target precision:                10.0000000000
 -------           Initial precision:               10.0000000000
                   Min. precision (optimization):   10.0000000000

 Neglect Functions:          Basis functions:        0.1000000000E-11
 ------------------          Fit functions:          0.1000000000E-11



 ===========================
 L I N E A R   S C A L I N G
 ===========================
  

 Cut-off radii density fit:                        0.1000000000E-13
 Overlap cut-off criterion AO matrix elements:     0.1000000000E-11
 Cut-offs for Coulomb potential and fitted density:0.1000000000E-13
 Cut-off criterion for Coulomb multipole terms:    0.1000000000E-13
1
 ***************************************************************************************************



                                            ***************************
                                            *  C O M P U T A T I O N  *
                                            ***************************
  

 Number of elements of the density matrix on this node (used, total):        15        15



 ====================================================
 Numerical Integration : Voronoi Polyhedra (Te Velde)  ***  (parameters, tests)  ***
 ====================================================
  
 General Accuracy Parameter :                         10.00

 Symmetry used in the points section:  ATOM  


 Summary of the Symmetry Unique Points:
 --------------------------------------
    Nr. of used Symmetry Operators                     1

    Points in the Atomic Spheres                      48
    Points in the Atomic Polyhedra                     0
    Points in the Outer Region                         0
    ----------------------------------------------------
    Total                                             48

    Sum of Weights                                 58501.056183

 Total nr. of points:         48
 Nr. of blocks:                1
 Block length:                48
 Nr. of dummy points:          0


 Test of Precision of the Numerical Integration Grid
 ===================================================

 Integral of the Total Core Density:                   0.00000000000000



 =====
 S C F
 =====
  

 CYCLE    1
 orbitals (Q,E):
 ---------------
 S :1...2            ( 2.00   -17.2281)  ( 2.00    -3.3737)   
 P :1...1            ( 2.00    -3.0741)   

 CYCLE    2
 d-Pmat  mean:  0.36E-15
 imax=      2:  0.13E-14
 orbitals (Q,E):
 ---------------
 S :1...2            ( 2.00    -9.7601)  ( 2.00    -0.3637)   
 P :1...1            ( 2.00    -0.0244)   

 SCF CONVERGED

 CYCLE    3
1
 ***************************************************************************************************



                                                *******************
                                                *  R E S U L T S  *
                                                *******************
  

 Orbital Energies, per Irrep and Spin:
 ======================================
                        Occup              E (au)              E (eV)       Diff (eV) with prev. cycle
                        -----      --------------------        ------       --------------------------
 S
               1        2.000     -0.97601381783324E+01      -265.587               1.98E-12
               2        2.000     -0.36369143932934E+00        -9.897               1.87E-12
 P
               1        2.000     -0.24432272455066E-01        -0.665               1.86E-12


 Partially Occupied:
               1 P                -0.24432272455066E-01
  
 HOMO :        2 S                -0.36369143932934E+00
  


 Orbital Energies, all Irreps
 ========================================

 Irrep        no.  (spin)   Occup              E (au)                E (eV)
 ---------------------------------------------------------------------------
 S             1             2.00       -0.97601381783324E+01      -265.5870
 S             2             2.00       -0.36369143932934E+00        -9.8966
 P             1             2.00       -0.24432272455066E-01        -0.6648


 Orbital Energies of the Core Orbitals:
 ======================================
 (Note that the atoms are grouped by atomtype, see the labels, and may hence NOT be in input order)

 AtomType  Orbital  Atom                   E (au)                        E (eV)
 --------  -------  ----           --------------------        ----------------



 =======================================
 M U L L I K E N   P O P U L A T I O N S
 =======================================
  
 The survey below gives for each atom:
 a) the total charge (Z minus electrons)
 b) the net spin polarization (nr of electrons spin-A minus spin-B)
 c) for each spin the atomic electron valence density (integrated) per L-value.

 Atom              Charge    Spin density          S         P         D         F
 ----              ------    ------------       ------    ------    ------    ------
 1 C               0.0000                       4.0000    2.0000    0.0000    0.0000

 Populations of individual BAS functions
 ----------------------------------------
 1 C            2.0000  2.0000  0.6667  0.6667  0.6667

 Gross Charges per Atom (Z minus electrons)
 ==========================================
             0.0000
 Net Total:  0.00000000


 Atom-Atom Population Matrix (off-diagonal elements not doubled)
 ===============================================================

     1 :     6.0000



 =============
 Dipole Moment  ***  (Debye)  ***
 =============
  
 Vector   :         0.00000000      0.00000000      0.00000000
 Magnitude:         0.00000000

 This molecular dipole moment is calculated with analytic integration



 =========================================
 Quadrupole Moment (Buckingham convention)  ***  (a.u.)  ***
 =========================================
  
      quad-xx        quad-xy        quad-xz        quad-yy        quad-yz        quad-zz
      0.00000000     0.00000000     0.00000000     0.00000000     0.00000000     0.00000000

 This molecular quadrupole moment is calculated with analytic integration



 ===============================================================================
 Electrostatic potential at the Nuclei due to valence electrons and other nuclei
 ===============================================================================
  
         Atom                  Potential
         ----                  ---------
     1)   C                  14.98166635
 
 
 ========================
 No memory problems found
 ========================
 
 Maximum number of active allocate calls:          26
 
 *******************************************************************************

                             A D F   E X I T
 NORMAL TERMINATION



 =================
 Timing Statistics
 =================
  
 Total Used :                     CPU=        0.11      System=        0.07     Elapsed=        0.44

 Calls  Section                     ( Mean, Percentage )
 ---------------------------------------------------------------------------------------------------
     3  ><      ................      0.00    9.09             0.00    0.00             0.00    2.26
     1  INIT    ................      0.01    9.09             0.00    0.00             0.02    5.65
     1  GEOMET  ................      0.00    0.00             0.03   42.86             0.08   19.08
     1  INPUTA  ................      0.00    0.00             0.01   14.29             0.02    3.93
     1  MAINSY  ................      0.01    9.09             0.00    0.00             0.01    2.73
     1  SYMFIT  ................      0.00    0.00             0.00    0.00             0.00    0.44
     1  CORORT  ................      0.00    0.00             0.00    0.00             0.00    0.52
     1  SYMORB  ................      0.00    0.00             0.00    0.00             0.00    0.67
     1  FITINT  ................      0.00    0.00             0.00    0.00             0.02    4.57
     1  CLSMAT  ................      0.00    0.00             0.00    0.00             0.00    0.59
     1  ORTHON  ................      0.00    0.00             0.00    0.00             0.01    1.31
     1  CRTP12  ................      0.00    0.00             0.01   14.29             0.01    1.27
     1  ETALOW  ................      0.00    0.00             0.00    0.00             0.00    0.72
     1  GENPT   ................      0.01    9.09             0.00    0.00             0.03    6.30
     1  PTCOR   ................      0.00    0.00             0.00    0.00             0.01    1.24
     1  PTBAS   ................      0.00    0.00             0.00    0.00             0.01    1.66
     4  FOCK00  ................      0.00    0.00             0.00   14.29             0.01    9.20
     3  FOCKY   ................      0.01   36.36             0.00    0.00             0.02   11.33
     3  FOCKTR  ................      0.00    0.00             0.00    0.00             0.00    1.64
     3  FOCKNM  ................      0.00    0.00             0.00    0.00             0.00    0.03
     3  SDIIS   ................      0.00    0.00             0.00    0.00             0.00    1.74
     3  EMERGE  ................      0.00    9.09             0.00    0.00             0.01    4.75
     3  RHOFIH  ................      0.00    0.00             0.00    0.00             0.01    3.87
     1  COREPS  ................      0.01    9.09             0.00    0.00             0.01    1.64
     1  POPAN   ................      0.00    0.00             0.01   14.29             0.01    1.87
     1  DEBYE   ................      0.00    0.00             0.00    0.00             0.00    0.98
     1  QMPOT   ................      0.01    9.09             0.00    0.00             0.00    0.59
     1  EXIT PROCEDURE .........      0.00    0.00             0.00    0.00             0.04    9.41


 Currently Open Files (EXIT00)
 ====================

 Unit    Access Format  Status   Type       Ident (file)
 -------------------------------------------------------
   3      SEQ    FORM   TRANSP  NORMAL      LOGFILE
                                          ( logfile )
   9      SEQ    BINA   LOCAL   NORMAL      $UNKNOWN


 Buffered I/O statistics
 =======================
 Memory available:                      8388608
 Number of records fitting in memory:      2028
 Input :   3.4% of                          783  *4k bytes
 Output:  15.0% of                          693  *4k bytes
 Records from serial files evicted:           0
                    others evicted:           0
 Hash table lookups:       4082 with          0 conflicts (  0.00%)


 Workspace Manager statistics
 ============================
 Allocate  :     311
 Delocate  :     102
 Relocate  :      18
 Extend    :       0
 Find      :      85
 Available :       7
 Check     :       3
 Hide      :       4
 Freeze    :       4
 Print     :       1

 (All arrays delocated)

 ***************************************************************************************************
 (LOGFILE)
 <Mar21-2006> <10:02:50>  ADF 2004.01  RunTime: Mar21-2006 10:02:50
 <Mar21-2006> <10:02:50>  Hydrogen (I)
 <Mar21-2006> <10:02:50>  RunType   : CREATE
 <Mar21-2006> <10:02:50>  Net Charge: 0 (Nuclei minus Electrons)
 <Mar21-2006> <10:02:50>  Symmetry  : ATOM
 <Mar21-2006> <10:02:50>  >>>> CORORT
 <Mar21-2006> <10:02:50>  >>>> FITINT
 <Mar21-2006> <10:02:50>  >>>> CLSMAT
 <Mar21-2006> <10:02:50>  >>>> ORTHON
 <Mar21-2006> <10:02:50>  >>>> CRTP12
 <Mar21-2006> <10:02:50>  >>>> GENPT
 <Mar21-2006> <10:02:50>  Acc.Num.Int.=  10.000
 <Mar21-2006> <10:02:50>  Block Length=  34
 <Mar21-2006> <10:02:50>  >>>> PTCOR
 <Mar21-2006> <10:02:50>  >>>> PTBAS
 <Mar21-2006> <10:02:50>  >>>> CYCLE
 <Mar21-2006> <10:02:50>    1
 <Mar21-2006> <10:02:50>    2  ErrMat   0.00000000  MaxEl  0.00000000
 <Mar21-2006> <10:02:50>  SCF converged
 <Mar21-2006> <10:02:50>    3  ErrMat   0.00000000  MaxEl  0.00000000
 <Mar21-2006> <10:02:50>   Solutions with partially occupied orbitals may not be
 <Mar21-2006> <10:02:50>   lowest in energy. You might consider lowering the
 <Mar21-2006> <10:02:50>   symmetry in the input and explicitly specifying integer
 <Mar21-2006> <10:02:50>   occupations. In that case always check that you obtain
 <Mar21-2006> <10:02:50>   an aufbau solution.
 <Mar21-2006> <10:02:50>  >>>> COREPS
 <Mar21-2006> <10:02:50>  >>>> POPAN
 <Mar21-2006> <10:02:50>  >>>> DEBYE
 <Mar21-2006> <10:02:50>  NORMAL TERMINATION
 <Mar21-2006> <10:02:50>  END
 <Mar21-2006> <10:02:51>  ADF 2004.01  RunTime: Mar21-2006 10:02:51
 <Mar21-2006> <10:02:51>  Carbon (I)
 <Mar21-2006> <10:02:51>  RunType   : CREATE
 <Mar21-2006> <10:02:51>  Net Charge: 0 (Nuclei minus Electrons)
 <Mar21-2006> <10:02:51>  Symmetry  : ATOM
 <Mar21-2006> <10:02:51>  >>>> CORORT
 <Mar21-2006> <10:02:51>  >>>> FITINT
 <Mar21-2006> <10:02:51>  >>>> CLSMAT
 <Mar21-2006> <10:02:51>  >>>> ORTHON
 <Mar21-2006> <10:02:51>  >>>> CRTP12
 <Mar21-2006> <10:02:51>  >>>> GENPT
 <Mar21-2006> <10:02:51>  Acc.Num.Int.=  10.000
 <Mar21-2006> <10:02:51>  Block Length=  48
 <Mar21-2006> <10:02:51>  >>>> PTCOR
 <Mar21-2006> <10:02:51>  >>>> PTBAS
 <Mar21-2006> <10:02:51>  >>>> CYCLE
 <Mar21-2006> <10:02:51>    1
 <Mar21-2006> <10:02:51>    2  ErrMat   0.00000000  MaxEl  0.00000000
 <Mar21-2006> <10:02:51>  SCF converged
 <Mar21-2006> <10:02:51>    3  ErrMat   0.00000000  MaxEl  0.00000000
 <Mar21-2006> <10:02:51>   Solutions with partially occupied orbitals may not be
 <Mar21-2006> <10:02:51>   lowest in energy. You might consider lowering the
 <Mar21-2006> <10:02:51>   symmetry in the input and explicitly specifying integer
 <Mar21-2006> <10:02:51>   occupations. In that case always check that you obtain
 <Mar21-2006> <10:02:51>   an aufbau solution.
 <Mar21-2006> <10:02:51>  >>>> COREPS
 <Mar21-2006> <10:02:51>  >>>> POPAN
 <Mar21-2006> <10:02:51>  >>>> DEBYE
 <Mar21-2006> <10:02:51>  NORMAL TERMINATION
 <Mar21-2006> <10:02:51>  END


 Parallel Execution: Process Information
 =======================================

 Actual Number of Tasks running:     2
 The Master (kid 0) runs on host koh18.stanford.edu

  Kid Node                   Speed          Task ID   Status
------------------------------------------------------------------
    0 koh18.stanford.edu        -1                0
    1 koh18.stanford.edu        -1                1
 
 Communication Options:
 ----------------------
 Broadcast:            4
 Gather   :            4
 Combine  :            4
 
(INPUT FILE)
title 1,4-divinyl-benzene, SZ, BLYP

charge 0 0
atoms
 C     -1.275568      0.692949      0.000000
 C     -1.211011     -0.742036      0.000000
 C      0.032360     -1.415271      0.000000
 C      1.275568     -0.692949      0.000000
 C      1.211011      0.742036      0.000000
 H     -2.143529     -1.330976      0.000000
 H      0.053320     -2.519080      0.000000
 H      2.143529      1.330976      0.000000
 C      2.571440     -1.457016      0.000000
 C      3.824633     -0.930233      0.000000
 H      4.012223      0.154429      0.000000
 H      2.455501     -2.556634      0.000000
 H      4.714807     -1.577980      0.000000
 C     -2.571440      1.457016      0.000000
 H     -2.455501      2.556634      0.000000
 C     -3.824633      0.930233      0.000000
 H     -4.012223     -0.154429      0.000000
 H     -4.714807      1.577980      0.000000
 C     -0.032360      1.415271      0.000000
 H     -0.053320      2.519080      0.000000
end

XC
 GGA Blyp
end

Fragments
H t21.H
C t21.C
End
end input

 *******************************************************************************
 *                                                                             *
 *  -------------------------------------                                      *
 *   Amsterdam Density Functional  (ADF)         2004.01   June 8, 2004        *
 *  -------------------------------------                                      *
 *                                               Build 200410211341            *
 *                                                                             *
 *                                                                             *
 *                              =================                              *
 *                              |               |                              *
 *                              |     A D F     |                              *
 *                              |               |                              *
 *                              =================                              *
 *                                                                             *
 *                                                                             *
 *   Online information and documentation:  http://www.scm.com                 *
 *   E-mail:  support@scm.com   info@scm.com                                   *
 *                                                                             *
 *   Scientific publications using ADF results must be properly referenced     *
 *   See the User Manuals (or the web site) for recommended citations          *
 *                                                                             *
 ****************************  pentium_linux_ifc  ******************************
 
 ADF 2004.01  RunTime: Mar21-2006 10:02:52
 1,4-divinyl-benzene, SZ, BLYP



 ===========================
 A T T A C H E D   F I L E S
 ===========================
  



 ===============================
 M O D E L   P A R A M E T E R S
 ===============================
  
 DENSITY FUNCTIONAL POTENTIAL (scf)
    LDA:                               Exchange only                           == Not Default ==
    Gradient Corrections:              Becke88 LYP                             == Not Default ==

 SPIN  (restricted / unrestr.)
    Molecule:                          Restricted                               
    Fragments:                         Restricted                               

 OTHER ASPECTS
    Relativistic Corrections:          ---                                      
    Core Treatment:                    Frozen Orbital(s)                        

    Electric Field:                    ---                                      

    Hyperfine or Zeeman Interaction:   ---                                      


 Fragment File(s)
 ----------------
 C:
         file : t21.C
         jobid: ADF 2004.01  RunTime: Mar21-2006 10:02:51
         title: Carbon (I)
 H:
         file : t21.H
         jobid: ADF 2004.01  RunTime: Mar21-2006 10:02:50
         title: Hydrogen (I)



                                        ************************************
                                        *  R U N   T Y P E : SINGLE POINT  *
                                        ************************************
  



 ===============
 G E O M E T R Y  ***  Planar Molecule  ***
 ===============
  

 ATOMS
 =====                            X Y Z                    CHARGE
                                (Angstrom)             Nucl     +Core       At.Mass
                       --------------------------    ----------------       -------
    1  C              -1.2756    0.6929    0.0000      6.00      6.00       12.0000
    2  C              -1.2110   -0.7420    0.0000      6.00      6.00       12.0000
    3  C               0.0324   -1.4153    0.0000      6.00      6.00       12.0000
    4  C               1.2756   -0.6929    0.0000      6.00      6.00       12.0000
    5  C               1.2110    0.7420    0.0000      6.00      6.00       12.0000
    6  H              -2.1435   -1.3310    0.0000      1.00      1.00        1.0078
    7  H               0.0533   -2.5191    0.0000      1.00      1.00        1.0078
    8  H               2.1435    1.3310    0.0000      1.00      1.00        1.0078
    9  C               2.5714   -1.4570    0.0000      6.00      6.00       12.0000
   10  C               3.8246   -0.9302    0.0000      6.00      6.00       12.0000
   11  H               4.0122    0.1544    0.0000      1.00      1.00        1.0078
   12  H               2.4555   -2.5566    0.0000      1.00      1.00        1.0078
   13  H               4.7148   -1.5780    0.0000      1.00      1.00        1.0078
   14  C              -2.5714    1.4570    0.0000      6.00      6.00       12.0000
   15  H              -2.4555    2.5566    0.0000      1.00      1.00        1.0078
   16  C              -3.8246    0.9302    0.0000      6.00      6.00       12.0000
   17  H              -4.0122   -0.1544    0.0000      1.00      1.00        1.0078
   18  H              -4.7148    1.5780    0.0000      1.00      1.00        1.0078
   19  C              -0.0324    1.4153    0.0000      6.00      6.00       12.0000
   20  H              -0.0533    2.5191    0.0000      1.00      1.00        1.0078


 FRAGMENTS
 =========             Atoms in this Fragment     Cart. coord.s (Angstrom)
                       -------------------------------------------------------
    1  C                   1  C            -1.275568     0.692949     0.000000
    2  C                   2  C            -1.211011    -0.742036     0.000000
    3  C                   3  C             0.032360    -1.415271     0.000000
    4  C                   4  C             1.275568    -0.692949     0.000000
    5  C                   5  C             1.211011     0.742036     0.000000
    6  C                   9  C             2.571440    -1.457016     0.000000
    7  C                  10  C             3.824633    -0.930233     0.000000
    8  C                  14  C            -2.571440     1.457016     0.000000
    9  C                  16  C            -3.824633     0.930233     0.000000
   10  C                  19  C            -0.032360     1.415271     0.000000
   11  H                   6  H            -2.143529    -1.330976     0.000000
   12  H                   7  H             0.053320    -2.519080     0.000000
   13  H                   8  H             2.143529     1.330976     0.000000
   14  H                  11  H             4.012223     0.154429     0.000000
   15  H                  12  H             2.455501    -2.556634     0.000000
   16  H                  13  H             4.714807    -1.577980     0.000000
   17  H                  15  H            -2.455501     2.556634     0.000000
   18  H                  17  H            -4.012223    -0.154429     0.000000
   19  H                  18  H            -4.714807     1.577980     0.000000
   20  H                  20  H            -0.053320     2.519080     0.000000


 Interatomic Distance Matrix (Angstrom)
 --------------------------------------

   1)     0.000
   2)     1.436   0.000
   3)     2.481   1.414   0.000
   4)     2.903   2.487   1.438   0.000
   5)     2.487   2.841   2.458   1.436   0.000
   6)     2.202   1.103   2.178   3.478   3.943   0.000
   7)     3.476   2.181   1.104   2.197   3.461   2.498   0.000
   8)     3.478   3.943   3.464   2.202   1.103   5.046   4.381   0.000
   9)     4.407   3.849   2.539   1.504   2.586   4.717   2.733   2.821   0.000
  10)     5.352   5.039   3.823   2.560   3.103   5.982   4.092   2.818   1.359   0.000
  11)     5.315   5.300   4.278   2.865   2.862   6.332   4.777   2.208   2.162   1.101
          0.000
  12)     4.948   4.091   2.678   2.206   3.526   4.760   2.402   3.900   1.106   2.126
          3.126   0.000
  13)     6.406   5.984   4.685   3.551   4.202   6.863   4.756   3.882   2.147   1.101
          1.869   2.462   0.000
  14)     1.504   2.586   3.877   4.407   3.849   2.821   4.764   4.717   5.911   6.827
          6.711   6.433   7.893   0.000
  15)     2.206   3.526   4.687   4.948   4.091   3.900   5.662   4.760   6.433   7.183
          6.899   7.090   8.277   1.106   0.000
  16)     2.560   3.103   4.514   5.352   5.039   2.818   5.190   5.982   6.827   7.872
          7.875   7.183   8.900   1.359   2.126   0.000
  17)     2.865   2.862   4.237   5.315   5.300   2.208   4.703   6.332   6.711   7.875
          8.030   6.899   8.842   2.162   3.126   1.101   0.000
  18)     3.551   4.202   5.612   6.406   5.984   3.882   6.287   6.863   7.893   8.900
          8.842   8.277   9.944   2.147   2.462   1.101   1.869   0.000
  19)     1.438   2.458   2.831   2.481   1.414   3.464   3.935   2.178   3.877   4.514
          4.237   4.687   5.612   2.539   2.678   3.823   4.278   4.685   0.000
  20)     2.197   3.461   3.935   3.476   2.181   4.381   5.039   2.498   4.764   5.190
          4.703   5.662   6.287   2.733   2.402   4.092   4.777   4.756   1.104   0.000

 Min. Distance =    1.1008
 Max. Distance =    9.9437



 =====================================
 S Y M M E T R Y ,   E L E C T R O N S
 =====================================
  
 Symmetry: C(2H)

 Irreducible Representations, including subspecies
 -------------------------------------------------
 A.g
 B.g
 A.u
 B.u


 Configuration of Valence Electrons
 ==================================
 ( determined in the SCF procedure )

 Total:   70

 Net Charge: 0 (Nuclei minus Electrons)

 Aufbau principle for MO occupations will be applied through SCF cycle no.      30
 Thereafter, the program will assign electrons to MOs that are spatially
 similar to the occupied MOs in a "reference" cycle ("KeepOrbitals").
 The reference cycle is always the PREVIOUS cycle: it will evolve with
 the SCF procedure.
1
 ***************************************************************************************************



                                      ****************************************
                                      *  B U I L D : (Fragments, Functions)  *
                                      ****************************************
  



 =======
 S F O s  ***  (Symmetrized Fragment Orbitals)  ***
 =======
  
 SFOs are linear combinations of (valence) Fragment Orbitals (FOs), such that the SFOs transform as the
 irreducible representations of the (molecular) symmetry group. Each SFO is therefore characterized by
 an irrep of the molecule and by a few (or only one) generating FOs.
 The SFOs constitute a symmetry-adapted basis for the Fock matrix. The MO eigenvector coefficients in
 this basis provide a direct interpretation of the MOs in terms of Frontier Orbital Theory.

 The SFOs are combined with auxiliary Core Functions (CFs) to ensure orthogonalization on the (frozen)
 Core Orbitals (COs). The Core-orthogonalized SFOs (CSFOs) constitute the true Fock basis.

 The FOs, and hence also the (C)SFOs are combinations of the elementary basis functions (BAS). The basis
 functions that participate in the description of the SFOs depend on the irrep. The indices of the
 involved functions are printed below for each irrep.
 (The complete list of primitive basis functions is printed in another section)


 Total nr. of (C)SFOs (summation over all irreps) :    60

 NOTE: a (C)SFO that is defined as a combination of more than one FO is usually NOT normalized.



                                       === A.g ===
 Nr. of SFOs :   25
 Cartesian basis functions that participate in this irrep (total number =    50) :
      1    16     2    17     3     4    18    19     6    21
      7    22     8     9    23    24    11    46    12    47
     13    14    48    49    26    36    27    37    28    29
     38    39    31    41    32    42    33    34    43    44
     51    53    52    60    54    58    55    57    56    59

    SFO  (index         Fragment          Generating    Expansion in Fragment Orbitals
  indx  incl.CFs)   Occup   Orb.Energy   FragmentType  Coeff.   Orbital     on Fragment
 --------------------------------------------------------------------------------------
     1       1      2.000      -9.760 au  C             0.71      1 S               1
                        (    -265.587 eV)               0.71      1 S               4
     2       2      2.000      -0.364 au  C             0.71      2 S               1
                        (      -9.897 eV)               0.71      2 S               4
     3       3      0.667      -0.024 au  C             0.71      1 P:x             1
                        (      -0.665 eV)              -0.71      1 P:x             4
     4       4      0.667      -0.024 au  C             0.71      1 P:y             1
                        (      -0.665 eV)              -0.71      1 P:y             4
     5       5      2.000      -9.760 au  C             0.71      1 S               2
                        (    -265.587 eV)               0.71      1 S               5
     6       6      2.000      -0.364 au  C             0.71      2 S               2
                        (      -9.897 eV)               0.71      2 S               5
     7       7      0.667      -0.024 au  C             0.71      1 P:x             2
                        (      -0.665 eV)              -0.71      1 P:x             5
     8       8      0.667      -0.024 au  C             0.71      1 P:y             2
                        (      -0.665 eV)              -0.71      1 P:y             5
     9       9      2.000      -9.760 au  C             0.71      1 S               3
                        (    -265.587 eV)               0.71      1 S              10
    10      10      2.000      -0.364 au  C             0.71      2 S               3
                        (      -9.897 eV)               0.71      2 S              10
    11      11      0.667      -0.024 au  C             0.71      1 P:x             3
                        (      -0.665 eV)              -0.71      1 P:x            10
    12      12      0.667      -0.024 au  C             0.71      1 P:y             3
                        (      -0.665 eV)              -0.71      1 P:y            10
    13      13      2.000      -9.760 au  C             0.71      1 S               6
                        (    -265.587 eV)               0.71      1 S               8
    14      14      2.000      -0.364 au  C             0.71      2 S               6
                        (      -9.897 eV)               0.71      2 S               8
    15      15      0.667      -0.024 au  C             0.71      1 P:x             6
                        (      -0.665 eV)              -0.71      1 P:x             8
    16      16      0.667      -0.024 au  C             0.71      1 P:y             6
                        (      -0.665 eV)              -0.71      1 P:y             8
    17      17      2.000      -9.760 au  C             0.71      1 S               7
                        (    -265.587 eV)               0.71      1 S               9
    18      18      2.000      -0.364 au  C             0.71      2 S               7
                        (      -9.897 eV)               0.71      2 S               9
    19      19      0.667      -0.024 au  C             0.71      1 P:x             7
                        (      -0.665 eV)              -0.71      1 P:x             9
    20      20      0.667      -0.024 au  C             0.71      1 P:y             7
                        (      -0.665 eV)              -0.71      1 P:y             9
    21      21      1.000      -0.122 au  H             0.71      1 S              11
                        (      -3.310 eV)               0.71      1 S              13
    22      22      1.000      -0.122 au  H             0.71      1 S              12
                        (      -3.310 eV)               0.71      1 S              20
    23      23      1.000      -0.122 au  H             0.71      1 S              14
                        (      -3.310 eV)               0.71      1 S              18
    24      24      1.000      -0.122 au  H             0.71      1 S              15
                        (      -3.310 eV)               0.71      1 S              17
    25      25      1.000      -0.122 au  H             0.71      1 S              16
                        (      -3.310 eV)               0.71      1 S              19



                                       === B.g ===
 Nr. of SFOs :    5
 Cartesian basis functions that participate in this irrep (total number =    10) :
      5    20    10    25    15    50    30    40    35    45

    SFO  (index         Fragment          Generating    Expansion in Fragment Orbitals
  indx  incl.CFs)   Occup   Orb.Energy   FragmentType  Coeff.   Orbital     on Fragment
 --------------------------------------------------------------------------------------
     1       1      0.667      -0.024 au  C             0.71      1 P:z             1
                        (      -0.665 eV)              -0.71      1 P:z             4
     2       2      0.667      -0.024 au  C             0.71      1 P:z             2
                        (      -0.665 eV)              -0.71      1 P:z             5
     3       3      0.667      -0.024 au  C             0.71      1 P:z             3
                        (      -0.665 eV)              -0.71      1 P:z            10
     4       4      0.667      -0.024 au  C             0.71      1 P:z             6
                        (      -0.665 eV)              -0.71      1 P:z             8
     5       5      0.667      -0.024 au  C             0.71      1 P:z             7
                        (      -0.665 eV)              -0.71      1 P:z             9



                                       === A.u ===
 Nr. of SFOs :    5
 Cartesian basis functions that participate in this irrep (total number =    10) :
      5    20    10    25    15    50    30    40    35    45

    SFO  (index         Fragment          Generating    Expansion in Fragment Orbitals
  indx  incl.CFs)   Occup   Orb.Energy   FragmentType  Coeff.   Orbital     on Fragment
 --------------------------------------------------------------------------------------
     1       1      0.667      -0.024 au  C             0.71      1 P:z             1
                        (      -0.665 eV)               0.71      1 P:z             4
     2       2      0.667      -0.024 au  C             0.71      1 P:z             2
                        (      -0.665 eV)               0.71      1 P:z             5
     3       3      0.667      -0.024 au  C             0.71      1 P:z             3
                        (      -0.665 eV)               0.71      1 P:z            10
     4       4      0.667      -0.024 au  C             0.71      1 P:z             6
                        (      -0.665 eV)               0.71      1 P:z             8
     5       5      0.667      -0.024 au  C             0.71      1 P:z             7
                        (      -0.665 eV)               0.71      1 P:z             9



                                       === B.u ===
 Nr. of SFOs :   25
 Cartesian basis functions that participate in this irrep (total number =    50) :
      1    16     2    17     3     4    18    19     6    21
      7    22     8     9    23    24    11    46    12    47
     13    14    48    49    26    36    27    37    28    29
     38    39    31    41    32    42    33    34    43    44
     51    53    52    60    54    58    55    57    56    59

    SFO  (index         Fragment          Generating    Expansion in Fragment Orbitals
  indx  incl.CFs)   Occup   Orb.Energy   FragmentType  Coeff.   Orbital     on Fragment
 --------------------------------------------------------------------------------------
     1       1      2.000      -9.760 au  C             0.71      1 S               1
                        (    -265.587 eV)              -0.71      1 S               4
     2       2      2.000      -0.364 au  C             0.71      2 S               1
                        (      -9.897 eV)              -0.71      2 S               4
     3       3      0.667      -0.024 au  C             0.71      1 P:x             1
                        (      -0.665 eV)               0.71      1 P:x             4
     4       4      0.667      -0.024 au  C             0.71      1 P:y             1
                        (      -0.665 eV)               0.71      1 P:y             4
     5       5      2.000      -9.760 au  C             0.71      1 S               2
                        (    -265.587 eV)              -0.71      1 S               5
     6       6      2.000      -0.364 au  C             0.71      2 S               2
                        (      -9.897 eV)              -0.71      2 S               5
     7       7      0.667      -0.024 au  C             0.71      1 P:x             2
                        (      -0.665 eV)               0.71      1 P:x             5
     8       8      0.667      -0.024 au  C             0.71      1 P:y             2
                        (      -0.665 eV)               0.71      1 P:y             5
     9       9      2.000      -9.760 au  C             0.71      1 S               3
                        (    -265.587 eV)              -0.71      1 S              10
    10      10      2.000      -0.364 au  C             0.71      2 S               3
                        (      -9.897 eV)              -0.71      2 S              10
    11      11      0.667      -0.024 au  C             0.71      1 P:x             3
                        (      -0.665 eV)               0.71      1 P:x            10
    12      12      0.667      -0.024 au  C             0.71      1 P:y             3
                        (      -0.665 eV)               0.71      1 P:y            10
    13      13      2.000      -9.760 au  C             0.71      1 S               6
                        (    -265.587 eV)              -0.71      1 S               8
    14      14      2.000      -0.364 au  C             0.71      2 S               6
                        (      -9.897 eV)              -0.71      2 S               8
    15      15      0.667      -0.024 au  C             0.71      1 P:x             6
                        (      -0.665 eV)               0.71      1 P:x             8
    16      16      0.667      -0.024 au  C             0.71      1 P:y             6
                        (      -0.665 eV)               0.71      1 P:y             8
    17      17      2.000      -9.760 au  C             0.71      1 S               7
                        (    -265.587 eV)              -0.71      1 S               9
    18      18      2.000      -0.364 au  C             0.71      2 S               7
                        (      -9.897 eV)              -0.71      2 S               9
    19      19      0.667      -0.024 au  C             0.71      1 P:x             7
                        (      -0.665 eV)               0.71      1 P:x             9
    20      20      0.667      -0.024 au  C             0.71      1 P:y             7
                        (      -0.665 eV)               0.71      1 P:y             9
    21      21      1.000      -0.122 au  H             0.71      1 S              11
                        (      -3.310 eV)              -0.71      1 S              13
    22      22      1.000      -0.122 au  H             0.71      1 S              12
                        (      -3.310 eV)              -0.71      1 S              20
    23      23      1.000      -0.122 au  H             0.71      1 S              14
                        (      -3.310 eV)              -0.71      1 S              18
    24      24      1.000      -0.122 au  H             0.71      1 S              15
                        (      -3.310 eV)              -0.71      1 S              17
    25      25      1.000      -0.122 au  H             0.71      1 S              16
                        (      -3.310 eV)              -0.71      1 S              19



 ================================
 (Slater-type)  F U N C T I O N S  ***  (Basis and Fit)  ***
 ================================
  

 Atom Type    1  (C)
 ==============

 Valence Basis Sets:   3
 -----------------------
   1 S    5.670000
   2 S    1.720000
   2 P    1.720000

 Charge Fitting Sets (for the computation of the Coulomb Potential):  22
 -----------------------------------------------------------------------
   1 S   11.340000
   2 S   13.540000
   2 S    9.660000
   2 S    6.890000
   2 S    4.920000
   3 S    5.130000
   3 S    3.860000
   3 S    2.900000
   3 S    2.180000
   3 S    1.640000
   2 P    7.390000
   2 P    4.710000
   3 P    4.410000
   3 P    3.020000
   3 P    2.060000
   3 D    3.440000
   3 D    2.690000
   3 D    2.100000
   3 D    1.640000
   4 F    5.400000
   4 F    3.550000
   5 G    4.500000

 Atom Type    2  (H)
 ==============

 Valence Basis Sets:   1
 -----------------------
   1 S    1.240000

 Charge Fitting Sets (for the computation of the Coulomb Potential):  11
 -----------------------------------------------------------------------
   1 S    3.160000
   1 S    2.090000
   1 S    1.380000
   2 S    1.500000
   2 P    4.000000
   2 P    2.650000
   2 P    1.750000
   3 D    4.000000
   3 D    2.500000
   4 F    3.000000
   5 G    4.000000


 BAS: List of all Elementary Cartesian Basis Functions
 =====================================================

 The numbering in the list below (to the right of the function characteristics) is referred
 to in print-outs of MO eigenvectors and Mulliken populations in the BAS representation
 (as contrasted to the SFO representation).

 Notes:
 1. The functions are characterized by a polynomial prefactor (powers of x,y,z and r) and
    an exponential decay factor alpha.
 2. Since the basis sets are specific for an atom TYPE, the individual functions occur on
    all atoms of that type.
 3. The word 'Core' in the left margin signals that it is a Core Function (CF) : not a
    degree of freedom in the valence set, but only used to ensure orthogonalization of
    the other valence basis functions on the frozen Core Orbitals.


 (power of) X  Y  Z  R     Alpha  on Atom
            ==========     =====     ==========

 C                                    1    2    3    4    5    6    7    8    9   10
                                  ---------------------------------------------------------------------------
            0  0  0  0     5.670      1    6   11   16   21   26   31   36   41   46
            0  0  0  1     1.720      2    7   12   17   22   27   32   37   42   47
            1  0  0  0     1.720      3    8   13   18   23   28   33   38   43   48
            0  1  0  0     1.720      4    9   14   19   24   29   34   39   44   49
            0  0  1  0     1.720      5   10   15   20   25   30   35   40   45   50

 H                                   11   12   13   14   15   16   17   18   19   20
                                  ---------------------------------------------------------------------------
            0  0  0  0     1.240     51   52   53   54   55   56   57   58   59   60


 Parallel Execution: Process Information
 =======================================

 Actual Number of Tasks running:     2
 The Master (kid 0) runs on host koh18.stanford.edu

  Kid Node                   Speed          Task ID   Status
------------------------------------------------------------------
    0 koh18.stanford.edu      1000                0
    1 koh18.stanford.edu      1000                1
 
 Communication Options:
 ----------------------
 Broadcast:            4
 Gather   :            4
 Combine  :            4
 
1
 ***************************************************************************************************



                                              ***********************
                                              *  T E C H N I C A L  *
                                              ***********************
  



 =============================================================
 P A R A L L E L I Z A T I O N  and  V E C T O R I Z A T I O N
 =============================================================
  
 Nr of parallel processes:                                2
 Internal max. (compile-time) nr of processes:          128
 Maximum vector length in NumInt loops:                 128



 ===============
 I O  vs.  C P U  ***  (store numerical data on disk or recalculate)  ***
 ===============
  
 Basis functions:   recalculate when needed
 Fit functions:     recalculate when needed

 IO buffersize (Mb):                                      8.000000

 Max memory usage (Mb):                                  80.000000
 Dynamic allocation blocks (Mb):
   Reals:                                                 1.000000
   Integers:                                              0.500000
   Logicals:                                              0.031250
   Strings:                                               1.500000



 =====================
 S C F   U P D A T E S
 =====================
  
 Max. nr. of cycles:                                50
 Convergence criterion:                              0.0000010000
   secondary criterion:                              0.0010000000

 Mix parameter (when DIIS does not apply):           0.2000000000


 DIIS (Direct Inversion in Iteration Space)
    Replace damping when SCF Error is below:         0.5000000000
    Apply anyway after SCF cycle:
                                                     5
    (Max.) nr. of expansion vectors:                10

    Upperbound on expansion coefficients:            5.0000000000
    (when exceeded, IterationSpace is re-built)
    2nd Upperbound on coefficients:                 25.0000000000
    (when exceeded, simple damping will be used)
 Automatic ElectronSmearing (in case of problematic SCF convergence) disabled



 =================
 P R E C I S I O N  ***  (General: NumInt, NeglectFunctionTails, ...)  ***
 =================
  

 NumInt:           Target precision:                 4.0000000000
 -------           Initial precision:                4.0000000000
                   Min. precision (optimization):    4.0000000000

 Neglect Functions:          Basis functions:        0.1000000000E-05
 ------------------          Fit functions:          0.1000000000E-05



 ===========================
 L I N E A R   S C A L I N G
 ===========================
  

 Cut-off radii density fit:                        0.1000000000E-07
 Overlap cut-off criterion AO matrix elements:     0.1000000000E-05
 Cut-offs for Coulomb potential and fitted density:0.1000000000E-07
 Cut-off criterion for Coulomb multipole terms:    0.1000000000E-07
1
 ***************************************************************************************************



                                            ***************************
                                            *  C O M P U T A T I O N  *
                                            ***************************
  

 Number of elements of the density matrix on this node (used, total):       503      1830



 ====================================================
 Numerical Integration : Voronoi Polyhedra (Te Velde)  ***  (parameters, tests)  ***
 ====================================================
  
 General Accuracy Parameter :                          4.00

 Symmetry used in the points section:  C(2H) 


 Summary of the Symmetry Unique Points:
 --------------------------------------
    Nr. of used Symmetry Operators                     4

    Points in the Atomic Spheres                    2010
    Points in the Atomic Polyhedra                 13148
    Points in the Outer Region                      3020
    ----------------------------------------------------
    Total                                          18178

    Sum of Weights                                 71933.270713

 Total nr. of points:      18178
 Nr. of blocks:              143
 Block length:               128
 Nr. of dummy points:        126


 Test of Precision of the Numerical Integration Grid
 ===================================================

 Integral of the Total Core Density:                   0.00000000000000



 =====
 S C F
 =====
  

 CYCLE    1
 orbitals (Q,E):
 ---------------
 A.g :6...25         ( 2.00    -0.7173)  ( 2.00    -0.6430)  ( 2.00    -0.5182)  ( 2.00    -0.4892)   
                     ( 2.00    -0.4461)  ( 2.00    -0.3979)  ( 2.00    -0.3450)  ( 2.00    -0.2985)   
                     ( 2.00    -0.2423)  ( 2.00    -0.2368)  ( 0.00     0.2791)  ( 0.00     0.3228)   
                     ( 0.00     0.3460)  ( 0.00     0.3713)  ( 0.00     0.4059)  ( 0.00     0.4538)   
                     ( 0.00     0.5009)  ( 0.00     0.5561)  ( 0.00     0.5930)  ( 0.00     0.6843)   
 B.g :1...5          ( 2.00    -0.2201)  ( 2.00    -0.1604)  ( 2.00    -0.1245)  ( 0.00     0.0638)   
                     ( 0.00     0.2144)   
 A.u :1...5          ( 2.00    -0.2710)  ( 2.00    -0.1780)  ( 0.00     0.0052)  ( 0.00     0.0538)   
                     ( 0.00     0.1342)   
 B.u :6...25         ( 2.00    -0.6708)  ( 2.00    -0.6198)  ( 2.00    -0.5920)  ( 2.00    -0.4683)   
                     ( 2.00    -0.3815)  ( 2.00    -0.3542)  ( 2.00    -0.3407)  ( 2.00    -0.3181)   
                     ( 2.00    -0.2975)  ( 2.00    -0.2623)  ( 0.00     0.2869)  ( 0.00     0.3224)   
                     ( 0.00     0.3485)  ( 0.00     0.3656)  ( 0.00     0.3835)  ( 0.00     0.4691)   
                     ( 0.00     0.5174)  ( 0.00     0.5426)  ( 0.00     0.6213)  ( 0.00     0.7013)   

 CYCLE    2
 d-Pmat  mean:  0.56E-02
 imax=     35: -0.35E-01
 orbitals (Q,E):
 ---------------
 A.g :6...16         ( 2.00    -0.7202)  ( 2.00    -0.6413)  ( 2.00    -0.5197)  ( 2.00    -0.4915)   
                     ( 2.00    -0.4472)  ( 2.00    -0.3983)  ( 2.00    -0.3431)  ( 2.00    -0.2978)   
                     ( 2.00    -0.2450)  ( 2.00    -0.2397)  ( 0.00     0.2775)   
 B.g :1...4          ( 2.00    -0.2213)  ( 2.00    -0.1615)  ( 2.00    -0.1247)  ( 0.00     0.0647)   
 A.u :1...3          ( 2.00    -0.2732)  ( 2.00    -0.1761)  ( 0.00     0.0047)   
 B.u :6...16         ( 2.00    -0.6719)  ( 2.00    -0.6214)  ( 2.00    -0.5927)  ( 2.00    -0.4687)   
                     ( 2.00    -0.3817)  ( 2.00    -0.3555)  ( 2.00    -0.3415)  ( 2.00    -0.3197)   
                     ( 2.00    -0.2986)  ( 2.00    -0.2637)  ( 0.00     0.2862)   

 CYCLE    3
 d-Pmat  mean:  0.54E-02
 imax=     40: -0.25E-01
 orbitals (Q,E):
 ---------------
 A.g :6...16         ( 2.00    -0.7194)  ( 2.00    -0.6363)  ( 2.00    -0.5206)  ( 2.00    -0.4920)   
                     ( 2.00    -0.4474)  ( 2.00    -0.3966)  ( 2.00    -0.3411)  ( 2.00    -0.2974)   
                     ( 2.00    -0.2462)  ( 2.00    -0.2414)  ( 0.00     0.2776)   
 B.g :1...4          ( 2.00    -0.2171)  ( 2.00    -0.1589)  ( 2.00    -0.1229)  ( 0.00     0.0673)   
 A.u :1...3          ( 2.00    -0.2702)  ( 2.00    -0.1705)  ( 0.00     0.0048)   
 B.u :6...16         ( 2.00    -0.6691)  ( 2.00    -0.6208)  ( 2.00    -0.5917)  ( 2.00    -0.4691)   
                     ( 2.00    -0.3800)  ( 2.00    -0.3565)  ( 2.00    -0.3419)  ( 2.00    -0.3201)   
                     ( 2.00    -0.2974)  ( 2.00    -0.2642)  ( 0.00     0.2876)   

 CYCLE    4
 d-Pmat  mean:  0.69E-02
 imax=     35: -0.39E-01
 orbitals (Q,E):
 ---------------
 A.g :6...16         ( 2.00    -0.7190)  ( 2.00    -0.6372)  ( 2.00    -0.5203)  ( 2.00    -0.4919)   
                     ( 2.00    -0.4474)  ( 2.00    -0.3971)  ( 2.00    -0.3408)  ( 2.00    -0.2973)   
                     ( 2.00    -0.2466)  ( 2.00    -0.2414)  ( 0.00     0.2769)   
 B.g :1...4          ( 2.00    -0.2174)  ( 2.00    -0.1598)  ( 2.00    -0.1212)  ( 0.00     0.0663)   
 A.u :1...3          ( 2.00    -0.2699)  ( 2.00    -0.1715)  ( 0.00     0.0064)   
 B.u :6...16         ( 2.00    -0.6696)  ( 2.00    -0.6216)  ( 2.00    -0.5904)  ( 2.00    -0.4693)   
[...]
      -8.727  2.00    13 B.u       34.09%     1 P:y            -0.665  0.67     3 C
                                   22.16%     1 P:x            -0.665  0.67     2 C
                                   18.07%     1 S              -3.310  1.00    12 H
                                   13.27%     1 S              -3.310  1.00    11 H
                                    3.41%     1 P:y            -0.665  0.67     2 C
                                    2.66%     1 P:x            -0.665  0.67     1 C
                                    1.67%     1 P:y            -0.665  0.67     7 C
      -8.106  2.00    14 B.u       20.10%     1 P:x            -0.665  0.67     7 C
                                   16.79%     1 P:x            -0.665  0.67     3 C
                                   15.32%     1 P:x            -0.665  0.67     6 C
                                   14.16%     1 P:x            -0.665  0.67     1 C
                                    7.23%     1 P:x            -0.665  0.67     2 C
                                    6.73%     1 S              -3.310  1.00    16 H
                                    5.22%     1 S              -3.310  1.00    15 H
                                    4.84%     1 P:y            -0.665  0.67     2 C
                                    4.18%     1 P:y            -0.665  0.67     6 C
                                    2.82%     1 P:y            -0.665  0.67     1 C
      -8.088  2.00    13 A.g       25.33%     1 P:y            -0.665  0.67     7 C
                                   18.92%     1 S              -3.310  1.00    14 H
                                   10.49%     1 S              -3.310  1.00    15 H
                                    8.28%     1 P:y            -0.665  0.67     6 C
                                    7.33%     1 P:y            -0.665  0.67     3 C
                                    6.21%     1 P:x            -0.665  0.67     6 C
                                    5.96%     1 S              -3.310  1.00    12 H
                                    4.98%     1 S              -3.310  1.00    16 H
                                    3.15%     1 P:x            -0.665  0.67     2 C
                                    2.75%     1 P:y            -0.665  0.67     2 C
                                    1.86%     1 P:y            -0.665  0.67     1 C
                                    1.66%     1 P:x            -0.665  0.67     3 C
                                    1.03%     2 S              -9.897  2.00     1 C
      -7.369  2.00     1 A.u       34.73%     1 P:z            -0.665  0.67     1 C
                                   26.61%     1 P:z            -0.665  0.67     3 C
                                   26.54%     1 P:z            -0.665  0.67     2 C
                                    9.62%     1 P:z            -0.665  0.67     6 C
                                    2.50%     1 P:z            -0.665  0.67     7 C
      -7.202  2.00    15 B.u       18.13%     1 P:y            -0.665  0.67     6 C
                                   16.04%     1 S              -3.310  1.00    15 H
                                   14.21%     1 P:y            -0.665  0.67     7 C
                                   12.23%     1 S              -3.310  1.00    14 H
                                   10.15%     1 S              -3.310  1.00    16 H
                                    9.90%     1 P:x            -0.665  0.67     1 C
                                    7.13%     1 P:y            -0.665  0.67     1 C
                                    5.24%     1 P:y            -0.665  0.67     2 C
                                    2.00%     1 P:x            -0.665  0.67     6 C
                                    1.59%     1 P:y            -0.665  0.67     3 C
                                    1.04%     1 P:x            -0.665  0.67     7 C
      -6.721  2.00    14 A.g       21.80%     1 P:x            -0.665  0.67     3 C
                                   20.47%     1 P:x            -0.665  0.67     1 C
                                   14.70%     1 P:x            -0.665  0.67     2 C
                                   12.49%     1 P:x            -0.665  0.67     6 C
                                   10.79%     1 S              -3.310  1.00    11 H
                                    5.36%     1 P:x            -0.665  0.67     7 C
                                    5.15%     1 P:y            -0.665  0.67     6 C
                                    4.81%     1 S              -3.310  1.00    16 H
                                    1.76%     1 S              -3.310  1.00    15 H
      -6.585  2.00    15 A.g       22.95%     1 P:y            -0.665  0.67     1 C
                                   20.87%     1 P:y            -0.665  0.67     2 C
                                   15.13%     1 S              -3.310  1.00    12 H
                                   12.83%     1 P:y            -0.665  0.67     3 C
                                    7.19%     1 S              -3.310  1.00    11 H
                                    6.77%     1 S              -3.310  1.00    15 H
                                    5.48%     1 P:y            -0.665  0.67     6 C
                                    2.92%     1 P:y            -0.665  0.67     7 C
                                    2.40%     1 S              -3.310  1.00    14 H
                                    1.01%     1 S              -3.310  1.00    16 H
      -5.934  2.00     1 B.g       37.63%     1 P:z            -0.665  0.67     6 C
                                   34.54%     1 P:z            -0.665  0.67     1 C
                                   17.98%     1 P:z            -0.665  0.67     7 C
                                    5.06%     1 P:z            -0.665  0.67     2 C
                                    4.79%     1 P:z            -0.665  0.67     3 C
      -4.654  2.00     2 A.u       41.99%     1 P:z            -0.665  0.67     7 C
                                   41.56%     1 P:z            -0.665  0.67     6 C
                                    8.37%     1 P:z            -0.665  0.67     3 C
                                    8.06%     1 P:z            -0.665  0.67     2 C
      -4.338  2.00     2 B.g       50.88%     1 P:z            -0.665  0.67     3 C
                                   49.08%     1 P:z            -0.665  0.67     2 C
      -3.325  2.00     3 B.g       37.94%     1 P:z            -0.665  0.67     7 C
                                   30.12%     1 P:z            -0.665  0.67     1 C
                                   11.36%     1 P:z            -0.665  0.67     2 C
                                   11.11%     1 P:z            -0.665  0.67     6 C
                                    9.47%     1 P:z            -0.665  0.67     3 C
       0.149  0.00     3 A.u       36.78%     1 P:z            -0.665  0.67     7 C
                                   30.97%     1 P:z            -0.665  0.67     1 C
                                   12.64%     1 P:z            -0.665  0.67     2 C
                                   10.96%     1 P:z            -0.665  0.67     6 C
                                    8.64%     1 P:z            -0.665  0.67     3 C
       1.419  0.00     4 A.u       52.61%     1 P:z            -0.665  0.67     3 C
                                   47.19%     1 P:z            -0.665  0.67     2 C
       1.816  0.00     4 B.g       41.07%     1 P:z            -0.665  0.67     7 C
                                   40.91%     1 P:z            -0.665  0.67     6 C
                                    9.38%     1 P:z            -0.665  0.67     3 C
                                    8.61%     1 P:z            -0.665  0.67     2 C
       3.570  0.00     5 A.u       37.85%     1 P:z            -0.665  0.67     6 C
                                   34.11%     1 P:z            -0.665  0.67     1 C
                                   18.71%     1 P:z            -0.665  0.67     7 C
                                    5.57%     1 P:z            -0.665  0.67     2 C
                                    3.77%     1 P:z            -0.665  0.67     3 C



 ===============================================================================
 Electrostatic potential at the Nuclei due to valence electrons and other nuclei
 ===============================================================================
  
         Atom                  Potential
         ----                  ---------
     1)   C                  14.72341391
     2)   C                  14.73689432
     3)   C                  14.73768570
     4)   C                  14.72341391
     5)   C                  14.73689432
     6)   H                   1.14697754
     7)   H                   1.14800365
     8)   H                   1.14697754
     9)   C                  14.73613869
    10)   C                  14.75133306
    11)   H                   1.14954538
    12)   H                   1.15324362
    13)   H                   1.14884308
    14)   C                  14.73613869
    15)   H                   1.15324362
    16)   C                  14.75133306
    17)   H                   1.14954538
    18)   H                   1.14884308
    19)   C                  14.73768570
    20)   H                   1.14800365
 
 
 ========================
 No memory problems found
 ========================
 
 Maximum number of active allocate calls:         145
 
 *******************************************************************************

                             A D F   E X I T
 NORMAL TERMINATION



 =================
 Timing Statistics
 =================
  
 Total Used :                     CPU=       14.30      System=        0.71     Elapsed=       29.54

 Calls  Section                     ( Mean, Percentage )
 ---------------------------------------------------------------------------------------------------
     3  ><      ................      0.00    0.00             0.00    0.00             0.00    0.00
     1  INIT    ................      0.01    0.07             0.00    0.00             0.03    0.10
     1  GEOMET  ................      0.17    1.19             0.46   64.79            14.39   48.70
     1  FRAGM   ................      0.05    0.35             0.00    0.00             0.11    0.36
     1  INPUTA  ................      0.00    0.00             0.00    0.00             0.02    0.08
     1  MAINSY  ................      0.01    0.07             0.00    0.00             0.02    0.06
     1  SYMFIT  ................      0.01    0.07             0.00    0.00             0.01    0.04
     1  CORORT  ................      0.00    0.00             0.00    0.00             0.00    0.01
     1  SYMORB  ................      0.01    0.07             0.00    0.00             0.02    0.05
     1  FITINT  ................      0.40    2.80             0.00    0.00             0.44    1.48
     1  CLSMAT  ................      0.02    0.14             0.00    0.00             0.02    0.07
     1  ORTHON  ................      0.02    0.14             0.00    0.00             0.03    0.08
     1  ATDEN   ................      0.01    0.07             0.02    2.82             0.03    0.09
     1  CRTP12  ................      0.01    0.07             0.00    0.00             0.01    0.02
     1  ETALOW  ................      0.00    0.00             0.00    0.00             0.00    0.01
     1  GENPT   ................      0.51    3.57             0.06    8.45             0.71    2.40
     1  PTCOR   ................      0.02    0.14             0.00    0.00             0.02    0.07
     1  PTBAS   ................      0.09    0.63             0.00    0.00             0.09    0.32
    12  FOCK00  ................      0.01    0.49             0.00    1.41             0.01    0.50
    11  FOCKY   ................      0.75   57.97             0.00    5.63             0.77   28.49
    11  FOCKTR  ................      0.00    0.00             0.00    1.41             0.00    0.13
    11  FOCKNM  ................      0.00    0.00             0.00    0.00             0.00    0.00
    11  SDIIS   ................      0.00    0.21             0.00    0.00             0.00    0.14
    11  EMERGE  ................      0.01    1.12             0.00    0.00             0.02    0.57
    12  RHOFIH  ................      0.01    1.12             0.00    1.41             0.02    0.81
     1  COREPS  ................      0.82    5.73             0.00    0.00             0.82    2.77
     1  TOTEN   ................      3.32   23.22             0.08   11.27             3.42   11.57
     1  POPAN   ................      0.01    0.07             0.00    0.00             0.01    0.04
     1  DEBYE   ................      0.01    0.07             0.00    0.00             0.01    0.04
     1  INPUTE  ................      0.00    0.00             0.00    0.00             0.00    0.02
     1  SYMORE  ................      0.00    0.00             0.00    0.00             0.01    0.02
     2  METS    ................      0.00    0.07             0.00    0.00             0.00    0.01
     1  CETS    ................      0.00    0.00             0.00    0.00             0.01    0.03
     1  ELNRGY  ................      0.05    0.35             0.00    0.00             0.07    0.25
     1  POPUL   ................      0.02    0.14             0.01    1.41             0.03    0.11
     1  QMPOT   ................      0.01    0.07             0.00    0.00             0.01    0.02
     1  EXIT PROCEDURE .........      0.00    0.00             0.01    1.41             0.15    0.50


 Currently Open Files (EXIT00)
 ====================

 Unit    Access Format  Status   Type       Ident (file)
 -------------------------------------------------------
   3      SEQ    FORM   TRANSP  NORMAL      LOGFILE
                                          ( logfile )
   9      SEQ    BINA   LOCAL   NORMAL      $UNKNOWN


 Buffered I/O statistics
 =======================
 Memory available:                      8388608
 Number of records fitting in memory:      2028
 Input :   3.3% of                        10617  *4k bytes
 Output:   6.5% of                         3830  *4k bytes
 Records from serial files evicted:           0
                    others evicted:           0
 Hash table lookups:      40093 with          0 conflicts (  0.00%)


 Workspace Manager statistics
 ============================
 Allocate  :    5175
 Delocate  :    3086
 Relocate  :      38
 Extend    :       0
 Find      :    1798
 Available :       8
 Check     :       3
 Hide      :       4
 Freeze    :       4
 Print     :       1

 (All arrays delocated)

 ***************************************************************************************************
 (LOGFILE)
 <Mar21-2006> <10:02:50>  ADF 2004.01  RunTime: Mar21-2006 10:02:50
 <Mar21-2006> <10:02:50>  Hydrogen (I)
 <Mar21-2006> <10:02:50>  RunType   : CREATE
 <Mar21-2006> <10:02:50>  Net Charge: 0 (Nuclei minus Electrons)
 <Mar21-2006> <10:02:50>  Symmetry  : ATOM
 <Mar21-2006> <10:02:50>  >>>> CORORT
 <Mar21-2006> <10:02:50>  >>>> FITINT
 <Mar21-2006> <10:02:50>  >>>> CLSMAT
 <Mar21-2006> <10:02:50>  >>>> ORTHON
 <Mar21-2006> <10:02:50>  >>>> CRTP12
 <Mar21-2006> <10:02:50>  >>>> GENPT
 <Mar21-2006> <10:02:50>  Acc.Num.Int.=  10.000
 <Mar21-2006> <10:02:50>  Block Length=  34
 <Mar21-2006> <10:02:50>  >>>> PTCOR
 <Mar21-2006> <10:02:50>  >>>> PTBAS
 <Mar21-2006> <10:02:50>  >>>> CYCLE
 <Mar21-2006> <10:02:50>    1
 <Mar21-2006> <10:02:50>    2  ErrMat   0.00000000  MaxEl  0.00000000
 <Mar21-2006> <10:02:50>  SCF converged
 <Mar21-2006> <10:02:50>    3  ErrMat   0.00000000  MaxEl  0.00000000
 <Mar21-2006> <10:02:50>   Solutions with partially occupied orbitals may not be
 <Mar21-2006> <10:02:50>   lowest in energy. You might consider lowering the
 <Mar21-2006> <10:02:50>   symmetry in the input and explicitly specifying integer
 <Mar21-2006> <10:02:50>   occupations. In that case always check that you obtain
 <Mar21-2006> <10:02:50>   an aufbau solution.
 <Mar21-2006> <10:02:50>  >>>> COREPS
 <Mar21-2006> <10:02:50>  >>>> POPAN
 <Mar21-2006> <10:02:50>  >>>> DEBYE
 <Mar21-2006> <10:02:50>  NORMAL TERMINATION
 <Mar21-2006> <10:02:50>  END
 <Mar21-2006> <10:02:51>  ADF 2004.01  RunTime: Mar21-2006 10:02:51
 <Mar21-2006> <10:02:51>  Carbon (I)
 <Mar21-2006> <10:02:51>  RunType   : CREATE
 <Mar21-2006> <10:02:51>  Net Charge: 0 (Nuclei minus Electrons)
 <Mar21-2006> <10:02:51>  Symmetry  : ATOM
 <Mar21-2006> <10:02:51>  >>>> CORORT
 <Mar21-2006> <10:02:51>  >>>> FITINT
 <Mar21-2006> <10:02:51>  >>>> CLSMAT
 <Mar21-2006> <10:02:51>  >>>> ORTHON
 <Mar21-2006> <10:02:51>  >>>> CRTP12
 <Mar21-2006> <10:02:51>  >>>> GENPT
 <Mar21-2006> <10:02:51>  Acc.Num.Int.=  10.000
 <Mar21-2006> <10:02:51>  Block Length=  48
 <Mar21-2006> <10:02:51>  >>>> PTCOR
 <Mar21-2006> <10:02:51>  >>>> PTBAS
 <Mar21-2006> <10:02:51>  >>>> CYCLE
 <Mar21-2006> <10:02:51>    1
 <Mar21-2006> <10:02:51>    2  ErrMat   0.00000000  MaxEl  0.00000000
 <Mar21-2006> <10:02:51>  SCF converged
 <Mar21-2006> <10:02:51>    3  ErrMat   0.00000000  MaxEl  0.00000000
 <Mar21-2006> <10:02:51>   Solutions with partially occupied orbitals may not be
 <Mar21-2006> <10:02:51>   lowest in energy. You might consider lowering the
 <Mar21-2006> <10:02:51>   symmetry in the input and explicitly specifying integer
 <Mar21-2006> <10:02:51>   occupations. In that case always check that you obtain
 <Mar21-2006> <10:02:51>   an aufbau solution.
 <Mar21-2006> <10:02:51>  >>>> COREPS
 <Mar21-2006> <10:02:51>  >>>> POPAN
 <Mar21-2006> <10:02:51>  >>>> DEBYE
 <Mar21-2006> <10:02:51>  NORMAL TERMINATION
 <Mar21-2006> <10:02:51>  END
 <Mar21-2006> <10:02:52>  ADF 2004.01  RunTime: Mar21-2006 10:02:52
 <Mar21-2006> <10:02:52>  1,4-divinyl-benzene, SZ, BLYP
 <Mar21-2006> <10:02:52>  RunType   : SINGLE POINT
 <Mar21-2006> <10:03:06>  Net Charge: 0 (Nuclei minus Electrons)
 <Mar21-2006> <10:03:06>  Symmetry  : C(2H)
 <Mar21-2006> <10:03:06>  >>>> FRAGM
 <Mar21-2006> <10:03:06>  >>>> CORORT
 <Mar21-2006> <10:03:06>  >>>> FITINT
 <Mar21-2006> <10:03:07>  >>>> CLSMAT
 <Mar21-2006> <10:03:07>  >>>> ORTHON
 <Mar21-2006> <10:03:07>  >>>> CRTP12
 <Mar21-2006> <10:03:07>  >>>> GENPT
 <Mar21-2006> <10:03:07>  Acc.Num.Int.=   4.000
 <Mar21-2006> <10:03:07>  Block Length= 128
 <Mar21-2006> <10:03:08>  >>>> PTCOR
 <Mar21-2006> <10:03:08>  >>>> PTBAS
 <Mar21-2006> <10:03:08>  >>>> CYCLE
 <Mar21-2006> <10:03:08>    1
 <Mar21-2006> <10:03:09>    2  ErrMat   0.12986353  MaxEl -0.03469604
 <Mar21-2006> <10:03:10>    3  ErrMat   0.07273733  MaxEl  0.01573353
 <Mar21-2006> <10:03:11>    4  ErrMat   0.05838858  MaxEl -0.02651594
 <Mar21-2006> <10:03:12>    5  ErrMat   0.02967368  MaxEl -0.00642683
 <Mar21-2006> <10:03:12>    6  ErrMat   0.00378823  MaxEl  0.00090415
 <Mar21-2006> <10:03:13>    7  ErrMat   0.00027062  MaxEl  0.00008331
 <Mar21-2006> <10:03:14>    8  ErrMat   0.00010644  MaxEl  0.00003630
 <Mar21-2006> <10:03:15>    9  ErrMat   0.00002982  MaxEl -0.00000880
 <Mar21-2006> <10:03:16>   10  ErrMat   0.00000225  MaxEl  0.00000066
 <Mar21-2006> <10:03:16>  SCF converged
 <Mar21-2006> <10:03:17>   11  ErrMat   0.00000071  MaxEl  0.00000024
 <Mar21-2006> <10:03:17>  >>>> COREPS
 <Mar21-2006> <10:03:18>  >>>> TOTEN
 <Mar21-2006> <10:03:21>  >>>> POPAN
 <Mar21-2006> <10:03:21>  >>>> DEBYE
 <Mar21-2006> <10:03:21>  >>>> AMETS
 <Mar21-2006> <10:03:21>   Bond Energy LDA      -5.63065037 a.u.
 <Mar21-2006> <10:03:21>   Bond Energy LDA    -153.21785482 eV
 <Mar21-2006> <10:03:21>           + GGA-X      -4.80722196 a.u.
 <Mar21-2006> <10:03:21>           + GGA-X    -130.81121856 eV
 <Mar21-2006> <10:03:21>          + GGA-XC      -5.16295007 a.u.
 <Mar21-2006> <10:03:21>          + GGA-XC    -140.49107690 eV
 <Mar21-2006> <10:03:21>  >>>> POPUL
 <Mar21-2006> <10:03:21>  NORMAL TERMINATION
 <Mar21-2006> <10:03:21>  END
