(INPUT FILE)
Create H file=/usr/local/adf2004.01/atomicdata/SZ/H
XC
 GGA Blyp
End
End Input

 *******************************************************************************
 *                                                                             *
 *  -------------------------------------                                      *
 *   Amsterdam Density Functional  (ADF)         2004.01   June 8, 2004        *
 *  -------------------------------------                                      *
 *                                               Build 200410211341            *
 *                                                                             *
 *                                                                             *
 *                              =================                              *
 *                              |               |                              *
 *                              |     A D F     |                              *
 *                              |               |                              *
 *                              =================                              *
 *                                                                             *
 *                                                                             *
 *   Online information and documentation:  http://www.scm.com                 *
 *   E-mail:  support@scm.com   info@scm.com                                   *
 *                                                                             *
 *   Scientific publications using ADF results must be properly referenced     *
 *   See the User Manuals (or the web site) for recommended citations          *
 *                                                                             *
 ****************************  pentium_linux_ifc  ******************************
 
 ADF 2004.01  RunTime: May08-2006 12:26:51
 Hydrogen (I)



 ===========================
 A T T A C H E D   F I L E S
 ===========================
  
 CREATE - Data File:    /usr/local/adf2004.01/atomicdata/SZ/H
                        Hydrogen (I)



 ===============================
 M O D E L   P A R A M E T E R S
 ===============================
  
 DENSITY FUNCTIONAL POTENTIAL (scf)
    LDA:                               Exchange only                           == Not Default ==
    Gradient Corrections:              Becke88 LYP                             == Not Default ==

 SPIN  (restricted / unrestr.)
    Molecule:                          Restricted                               

 OTHER ASPECTS
    Relativistic Corrections:          ---                                      
    Core Treatment:                    Frozen Orbital(s)                        

    Electric Field:                    ---                                      

    Hyperfine or Zeeman Interaction:   ---                                      



 =====================================
 S Y M M E T R Y ,   E L E C T R O N S
 =====================================
  
 Symmetry: ATOM

 Irreducible Representations, including subspecies
 -------------------------------------------------
 S
 P:x  P:y  P:z
 D:z2  D:x2-y2  D:xy  D:xz  D:yz
 F:z3  F:z  F:xyz  F:z2x  F:z2y  F:x  F:y


 Configuration of Valence Electrons
 ==================================

          Occupation Numbers
          -------------------------------------------------
 S        1
 P        0
 D        0
 F        0
          -------------------------------------------------

 Total:   1

 Net Charge: 0 (Nuclei minus Electrons)

 Preset values for MO occupations will be applied through SCF cycle no. 1000000
 Thereafter, the program will assign electrons to MOs that are spatially
 similar to the occupied MOs in a "reference" cycle ("KeepOrbitals").
 The reference cycle is always the PREVIOUS cycle: it will evolve with
 the SCF procedure.



 ================================
 (Slater-type)  F U N C T I O N S  ***  (Basis and Fit)  ***
 ================================
  

 Atom Type    1  (H)
 ==============

 Valence Basis Sets:   1
 -----------------------
   1 S    1.240000

 Charge Fitting Sets (for the computation of the Coulomb Potential):  11
 -----------------------------------------------------------------------
   1 S    3.160000
   1 S    2.090000
   1 S    1.380000
   2 S    1.500000
   2 P    4.000000
   2 P    2.650000
   2 P    1.750000
   3 D    4.000000
   3 D    2.500000
   4 F    3.000000
   5 G    4.000000


 BAS: List of all Elementary Cartesian Basis Functions
 =====================================================

 The numbering in the list below (to the right of the function characteristics) is referred
 to in print-outs of MO eigenvectors and Mulliken populations in the BAS representation
 (as contrasted to the SFO representation).

 Notes:
 1. The functions are characterized by a polynomial prefactor (powers of x,y,z and r) and
    an exponential decay factor alpha.
 2. Since the basis sets are specific for an atom TYPE, the individual functions occur on
    all atoms of that type.
 3. The word 'Core' in the left margin signals that it is a Core Function (CF) : not a
    degree of freedom in the valence set, but only used to ensure orthogonalization of
    the other valence basis functions on the frozen Core Orbitals.


 (power of) X  Y  Z  R     Alpha  on Atom
            ==========     =====     ==========

 H                                    1
                                  ---------------------------------------------------------------------------
            0  0  0  0     1.240      1
1
 ***************************************************************************************************



                                              ***********************
                                              *  T E C H N I C A L  *
                                              ***********************
  



 =============================================================
 P A R A L L E L I Z A T I O N  and  V E C T O R I Z A T I O N
 =============================================================
  
 Nr of parallel processes:                                1
 Internal max. (compile-time) nr of processes:          128
 Maximum vector length in NumInt loops:                 128



 ===============
 I O  vs.  C P U  ***  (store numerical data on disk or recalculate)  ***
 ===============
  
 Basis functions:   recalculate when needed
 Fit functions:     recalculate when needed

 IO buffersize (Mb):                                      8.000000

 Max memory usage (Mb):                                  80.000000
 Dynamic allocation blocks (Mb):
   Reals:                                                 1.000000
   Integers:                                              0.500000
   Logicals:                                              0.031250
   Strings:                                               1.500000



 =====================
 S C F   U P D A T E S
 =====================
  
 Max. nr. of cycles:                               100
 Convergence criterion:                              0.0000000100
   secondary criterion:                              0.0000000100

 Mix parameter (when DIIS does not apply):           0.2000000000
 Special mix parameter for the first cycle:          1.0000000000


 DIIS (Direct Inversion in Iteration Space)
    Replace damping when SCF Error is below:         0.5000000000
    Apply anyway after SCF cycle:
                                                     5
    (Max.) nr. of expansion vectors:                10

    Upperbound on expansion coefficients:            5.0000000000
    (when exceeded, IterationSpace is re-built)
    2nd Upperbound on coefficients:                 25.0000000000
    (when exceeded, simple damping will be used)
 Automatic ElectronSmearing (in case of problematic SCF convergence) disabled



 =================
 P R E C I S I O N  ***  (General: NumInt, NeglectFunctionTails, ...)  ***
 =================
  

 NumInt:           Target precision:                10.0000000000
 -------           Initial precision:               10.0000000000
                   Min. precision (optimization):   10.0000000000

 Neglect Functions:          Basis functions:        0.1000000000E-11
 ------------------          Fit functions:          0.1000000000E-11



 ===========================
 L I N E A R   S C A L I N G
 ===========================
  

 Cut-off radii density fit:                        0.1000000000E-13
 Overlap cut-off criterion AO matrix elements:     0.1000000000E-11
 Cut-offs for Coulomb potential and fitted density:0.1000000000E-13
 Cut-off criterion for Coulomb multipole terms:    0.1000000000E-13
1
 ***************************************************************************************************



                                            ***************************
                                            *  C O M P U T A T I O N  *
                                            ***************************
  

 Number of elements of the density matrix on this node (used, total):         1         1



 ====================================================
 Numerical Integration : Voronoi Polyhedra (Te Velde)  ***  (parameters, tests)  ***
 ====================================================
  
 General Accuracy Parameter :                         10.00

 Symmetry used in the points section:  ATOM  


 Summary of the Symmetry Unique Points:
 --------------------------------------
    Nr. of used Symmetry Operators                     1

    Points in the Atomic Spheres                      34
    Points in the Atomic Polyhedra                     0
    Points in the Outer Region                         0
    ----------------------------------------------------
    Total                                             34

    Sum of Weights                                 33854.777883

 Total nr. of points:         34
 Nr. of blocks:                1
 Block length:                34
 Nr. of dummy points:          0


 Test of Precision of the Numerical Integration Grid
 ===================================================

 Integral of the Total Core Density:                   0.00000000000000



 =====
 S C F
 =====
  

 CYCLE    1
 orbitals (Q,E):
 ---------------
 S :1...1            ( 1.00    -0.1216)   

 CYCLE    2
 d-Pmat  mean:  0.00E+00
 imax=      1:  0.00E+00
 orbitals (Q,E):
 ---------------
 S :1...1            ( 1.00    -0.1216)   

 SCF CONVERGED

 CYCLE    3
1
 ***************************************************************************************************



                                                *******************
                                                *  R E S U L T S  *
                                                *******************
  

 Orbital Energies, per Irrep and Spin:
 ======================================
                        Occup              E (au)              E (eV)       Diff (eV) with prev. cycle
                        -----      --------------------        ------       --------------------------
 S
               1        1.000     -0.12163331707834E+00        -3.310               0.00E+00


 Partially Occupied:
               1 S                -0.12163331707834E+00
  


 Orbital Energies of the Core Orbitals:
 ======================================
 (Note that the atoms are grouped by atomtype, see the labels, and may hence NOT be in input order)

 AtomType  Orbital  Atom                   E (au)                        E (eV)
 --------  -------  ----           --------------------        ----------------



 =======================================
 M U L L I K E N   P O P U L A T I O N S
 =======================================
  
 The survey below gives for each atom:
 a) the total charge (Z minus electrons)
 b) the net spin polarization (nr of electrons spin-A minus spin-B)
 c) for each spin the atomic electron valence density (integrated) per L-value.

 Atom              Charge    Spin density          S         P         D         F
 ----              ------    ------------       ------    ------    ------    ------
 1 H               0.0000                       1.0000    0.0000    0.0000    0.0000

 Populations of individual BAS functions
 ----------------------------------------
 1 H            1.0000

 Gross Charges per Atom (Z minus electrons)
 ==========================================
             0.0000
 Net Total:  0.00000000


 Atom-Atom Population Matrix (off-diagonal elements not doubled)
 ===============================================================

     1 :     1.0000



 =============
 Dipole Moment  ***  (Debye)  ***
 =============
  
 Vector   :         0.00000000      0.00000000      0.00000000
 Magnitude:         0.00000000

 This molecular dipole moment is calculated with analytic integration



 =========================================
 Quadrupole Moment (Buckingham convention)  ***  (a.u.)  ***
 =========================================
  
      quad-xx        quad-xy        quad-xz        quad-yy        quad-yz        quad-zz
      0.00000000     0.00000000     0.00000000     0.00000000     0.00000000     0.00000000

 This molecular quadrupole moment is calculated with analytic integration



 ===============================================================================
 Electrostatic potential at the Nuclei due to valence electrons and other nuclei
 ===============================================================================
  
         Atom                  Potential
         ----                  ---------
     1)   H                   1.23926638
 
 
 ========================
 No memory problems found
 ========================
 
 Maximum number of active allocate calls:          26
 
 *******************************************************************************

                             A D F   E X I T
 NORMAL TERMINATION



 =================
 Timing Statistics
 =================
  
 Total Used :                     CPU=        0.15      System=        0.03     Elapsed=       11.06

 Calls  Section                     ( Mean, Percentage )
 ---------------------------------------------------------------------------------------------------
     3  ><      ................      0.00    0.00             0.00    0.00             0.24    6.56
     1  INIT    ................      0.01    6.67             0.00    0.00             1.70   15.39
     1  GEOMET  ................      0.01    6.67             0.02   66.67             1.49   13.44
     1  INPUTA  ................      0.00    0.00             0.00    0.00             0.61    5.52
     1  MAINSY  ................      0.00    0.00             0.00    0.00             0.70    6.30
     1  SYMFIT  ................      0.00    0.00             0.00    0.00             0.00    0.01
     1  CORORT  ................      0.00    0.00             0.00    0.00             0.20    1.81
     1  SYMORB  ................      0.00    0.00             0.00    0.00             0.09    0.82
     1  FITINT  ................      0.02   13.33             0.00    0.00             0.41    3.71
     1  CLSMAT  ................      0.00    0.00             0.00    0.00             0.11    0.96
     1  ORTHON  ................      0.00    0.00             0.00    0.00             0.21    1.88
     1  CRTP12  ................      0.00    0.00             0.01   33.33             0.19    1.73
     1  ETALOW  ................      0.00    0.00             0.00    0.00             0.00    0.01
     1  GENPT   ................      0.01    6.67             0.00    0.00             0.70    6.29
     1  PTCOR   ................      0.02   13.33             0.00    0.00             0.26    2.36
     1  PTBAS   ................      0.00    0.00             0.00    0.00             0.15    1.33
     4  FOCK00  ................      0.00    6.67             0.00    0.00             0.19    6.70
     3  FOCKY   ................      0.01   20.00             0.00    0.00             0.02    0.47
     3  FOCKTR  ................      0.00    0.00             0.00    0.00             0.00    0.02
     3  FOCKNM  ................      0.00    0.00             0.00    0.00             0.00    0.00
     3  SDIIS   ................      0.00    0.00             0.00    0.00             0.18    4.85
     3  EMERGE  ................      0.00    6.67             0.00    0.00             0.34    9.14
     3  RHOFIH  ................      0.00    0.00             0.00    0.00             0.00    0.04
     1  COREPS  ................      0.00    0.00             0.00    0.00             0.00    0.03
     1  POPAN   ................      0.01    6.67             0.00    0.00             0.20    1.79
     1  DEBYE   ................      0.01    6.67             0.00    0.00             0.16    1.47
     1  QMPOT   ................      0.00    0.00             0.00    0.00             0.00    0.01
     1  EXIT PROCEDURE .........      0.01    6.67             0.00    0.00             0.81    7.36


 Currently Open Files (EXIT00)
 ====================

 Unit    Access Format  Status   Type       Ident (file)
 -------------------------------------------------------
   3      SEQ    FORM   TRANSP  NORMAL      LOGFILE
                                          ( logfile )
   9      SEQ    BINA   LOCAL   NORMAL      $UNKNOWN


 Buffered I/O statistics
 =======================
 Memory available:                      8388608
 Number of records fitting in memory:      2028
 Input :   4.7% of                          571  *4k bytes
 Output:  16.2% of                          604  *4k bytes
 Records from serial files evicted:           0
                    others evicted:           0
 Hash table lookups:       3217 with          0 conflicts (  0.00%)


 Workspace Manager statistics
 ============================
 Allocate  :     308
 Delocate  :      99
 Relocate  :      18
 Extend    :       0
 Find      :      85
 Available :       4
 Check     :       3
 Hide      :       4
 Freeze    :       4
 Print     :       1

 (All arrays delocated)

 ***************************************************************************************************
 (LOGFILE)
 <Apr24-2006> <20:59:54>  ADF 2004.01  RunTime: Apr24-2006 20:59:54
 <Apr24-2006> <20:59:54>  Hydrogen (I)
 <Apr24-2006> <20:59:55>  RunType   : CREATE
 <Apr24-2006> <20:59:56>  Net Charge: 0 (Nuclei minus Electrons)
 <Apr24-2006> <20:59:57>  Symmetry  : ATOM
 <Apr24-2006> <21:00:00>  >>>> CORORT
 <Apr24-2006> <21:00:01>  >>>> FITINT
 <Apr24-2006> <21:00:01>  >>>> CLSMAT
 <Apr24-2006> <21:00:02>  >>>> ORTHON
 <Apr24-2006> <21:00:02>  >>>> CRTP12
 <Apr24-2006> <21:00:02>  >>>> GENPT
 <Apr24-2006> <21:00:02>  Acc.Num.Int.=  10.000
 <Apr24-2006> <21:00:03>  Block Length=  34
 <Apr24-2006> <21:00:04>  >>>> PTCOR
 <Apr24-2006> <21:00:04>  >>>> PTBAS
 <Apr24-2006> <21:00:04>  >>>> CYCLE
 <Apr24-2006> <21:00:04>    1
 <Apr24-2006> <21:00:05>    2  ErrMat   0.00000000  MaxEl  0.00000000
 <Apr24-2006> <21:00:05>  SCF converged
 <Apr24-2006> <21:00:05>    3  ErrMat   0.00000000  MaxEl  0.00000000
 <Apr24-2006> <21:00:05>   Solutions with partially occupied orbitals may not be
 <Apr24-2006> <21:00:05>   lowest in energy. You might consider lowering the
 <Apr24-2006> <21:00:06>   symmetry in the input and explicitly specifying integer
 <Apr24-2006> <21:00:06>   occupations. In that case always check that you obtain
 <Apr24-2006> <21:00:06>   an aufbau solution.
 <Apr24-2006> <21:00:06>  >>>> COREPS
 <Apr24-2006> <21:00:06>  >>>> POPAN
 <Apr24-2006> <21:00:07>  >>>> DEBYE
 <Apr24-2006> <21:00:07>  NORMAL TERMINATION
 <Apr24-2006> <21:00:08>  END
 <Apr24-2006> <21:00:10>  ADF 2004.01  RunTime: Apr24-2006 21:00:10
 <Apr24-2006> <21:00:10>  Carbon (I)
 <Apr24-2006> <21:00:11>  RunType   : CREATE
 <Apr24-2006> <21:00:12>  Net Charge: 0 (Nuclei minus Electrons)
 <Apr24-2006> <21:00:12>  Symmetry  : ATOM
 <Apr24-2006> <21:00:13>  >>>> CORORT
 <Apr24-2006> <21:00:14>  >>>> FITINT
 <Apr24-2006> <21:00:14>  >>>> CLSMAT
 <Apr24-2006> <21:00:14>  >>>> ORTHON
 <Apr24-2006> <21:00:14>  >>>> CRTP12
 <Apr24-2006> <21:00:15>  >>>> GENPT
 <Apr24-2006> <21:00:15>  Acc.Num.Int.=  10.000
 <Apr24-2006> <21:00:15>  Block Length=  48
 <Apr24-2006> <21:00:15>  >>>> PTCOR
 <Apr24-2006> <21:00:15>  >>>> PTBAS
 <Apr24-2006> <21:00:15>  >>>> CYCLE
 <Apr24-2006> <21:00:16>    1
 <Apr24-2006> <21:00:16>    2  ErrMat   0.00000000  MaxEl  0.00000000
 <Apr24-2006> <21:00:16>  SCF converged
 <Apr24-2006> <21:00:17>    3  ErrMat   0.00000000  MaxEl  0.00000000
 <Apr24-2006> <21:00:17>   Solutions with partially occupied orbitals may not be
 <Apr24-2006> <21:00:17>   lowest in energy. You might consider lowering the
 <Apr24-2006> <21:00:17>   symmetry in the input and explicitly specifying integer
 <Apr24-2006> <21:00:17>   occupations. In that case always check that you obtain
 <Apr24-2006> <21:00:17>   an aufbau solution.
 <Apr24-2006> <21:00:18>  >>>> COREPS
 <Apr24-2006> <21:00:18>  >>>> POPAN
 <Apr24-2006> <21:00:18>  >>>> DEBYE
 <Apr24-2006> <21:00:18>  NORMAL TERMINATION
 <Apr24-2006> <21:00:19>  END
 <Apr24-2006> <21:00:21>  ADF 2004.01  RunTime: Apr24-2006 21:00:21
 <Apr24-2006> <21:00:21>  1,4-divinyl-benzene, SZ, BLYP, nosym
 <Apr24-2006> <21:00:22>  RunType   : SINGLE POINT
 <Apr24-2006> <21:00:23>  Net Charge: 0 (Nuclei minus Electrons)
 <Apr24-2006> <21:00:23>  Symmetry  : NOSYM
 <Apr24-2006> <21:00:24>  >>>> FRAGM
 <Apr24-2006> <21:00:29>  >>>> CORORT
 <Apr24-2006> <21:00:29>  >>>> FITINT
 <Apr24-2006> <21:00:33>  >>>> CLSMAT
 <Apr24-2006> <21:00:33>  >>>> ORTHON
 <Apr24-2006> <21:00:34>  >>>> CRTP12
 <Apr24-2006> <21:00:34>  >>>> GENPT
 <Apr24-2006> <21:00:34>  Acc.Num.Int.=   4.000
 <Apr24-2006> <21:00:35>  Block Length= 128
 <Apr24-2006> <21:03:23>  >>>> PTCOR
 <Apr24-2006> <21:03:58>  >>>> PTBAS
 <Apr24-2006> <21:03:59>  >>>> CYCLE
 <Apr24-2006> <21:04:04>    1
 <Apr24-2006> <21:04:12>    2  ErrMat   0.12986351  MaxEl -0.03422367
 <Apr24-2006> <21:04:21>    3  ErrMat   0.07273733  MaxEl  0.01521982
 <Apr24-2006> <21:04:29>    4  ErrMat   0.05838857  MaxEl -0.02640371
 <Apr24-2006> <21:04:38>    5  ErrMat   0.02967369  MaxEl -0.00642566
 <Apr24-2006> <21:04:48>    6  ErrMat   0.00378823  MaxEl -0.00088618
 <Apr24-2006> <21:04:57>    7  ErrMat   0.00027062  MaxEl  0.00008278
 <Apr24-2006> <21:05:06>    8  ErrMat   0.00010644  MaxEl  0.00003609
 <Apr24-2006> <21:05:18>    9  ErrMat   0.00002982  MaxEl -0.00000876
 <Apr24-2006> <21:05:33>   10  ErrMat   0.00000225  MaxEl -0.00000064
 <Apr24-2006> <21:05:33>  SCF converged
 <Apr24-2006> <21:05:41>   11  ErrMat   0.00000071  MaxEl  0.00000024
 <Apr24-2006> <21:05:42>  >>>> COREPS
 <Apr24-2006> <21:05:49>  >>>> TOTEN
 <Apr24-2006> <21:06:20>  >>>> POPAN
 <Apr24-2006> <21:06:20>  >>>> DEBYE
 <Apr24-2006> <21:06:20>  >>>> AMETS
 <Apr24-2006> <21:06:20>   Bond Energy LDA      -5.63065039 a.u.
 <Apr24-2006> <21:06:21>   Bond Energy LDA    -153.21785534 eV
 <Apr24-2006> <21:06:21>           + GGA-X      -4.80722198 a.u.
 <Apr24-2006> <21:06:21>           + GGA-X    -130.81121914 eV
 <Apr24-2006> <21:06:21>          + GGA-XC      -5.16295009 a.u.
 <Apr24-2006> <21:06:21>          + GGA-XC    -140.49107747 eV
 <Apr24-2006> <21:06:21>  >>>> POPUL
 <Apr24-2006> <21:06:22>  NORMAL TERMINATION
 <Apr24-2006> <21:06:23>  END
 <May08-2006> <12:26:51>  ADF 2004.01  RunTime: May08-2006 12:26:51
 <May08-2006> <12:26:51>  Hydrogen (I)
 <May08-2006> <12:26:53>  RunType   : CREATE
 <May08-2006> <12:26:53>  Net Charge: 0 (Nuclei minus Electrons)
 <May08-2006> <12:26:53>  Symmetry  : ATOM
 <May08-2006> <12:26:55>  >>>> CORORT
 <May08-2006> <12:26:55>  >>>> FITINT
 <May08-2006> <12:26:56>  >>>> CLSMAT
 <May08-2006> <12:26:56>  >>>> ORTHON
 <May08-2006> <12:26:56>  >>>> CRTP12
 <May08-2006> <12:26:56>  >>>> GENPT
 <May08-2006> <12:26:56>  Acc.Num.Int.=  10.000
 <May08-2006> <12:26:57>  Block Length=  34
 <May08-2006> <12:26:57>  >>>> PTCOR
 <May08-2006> <12:26:57>  >>>> PTBAS
 <May08-2006> <12:26:57>  >>>> CYCLE
 <May08-2006> <12:26:58>    1
 <May08-2006> <12:26:58>    2  ErrMat   0.00000000  MaxEl  0.00000000
 <May08-2006> <12:26:58>  SCF converged
 <May08-2006> <12:26:58>    3  ErrMat   0.00000000  MaxEl  0.00000000
 <May08-2006> <12:26:59>   Solutions with partially occupied orbitals may not be
 <May08-2006> <12:26:59>   lowest in energy. You might consider lowering the
 <May08-2006> <12:26:59>   symmetry in the input and explicitly specifying integer
 <May08-2006> <12:26:59>   occupations. In that case always check that you obtain
 <May08-2006> <12:26:59>   an aufbau solution.
 <May08-2006> <12:27:00>  >>>> COREPS
 <May08-2006> <12:27:00>  >>>> POPAN
 <May08-2006> <12:27:00>  >>>> DEBYE
 <May08-2006> <12:27:00>  NORMAL TERMINATION
 <May08-2006> <12:27:01>  END
(INPUT FILE)
Create C file=/usr/local/adf2004.01/atomicdata/SZ/C
XC
 GGA Blyp
End
End Input

 *******************************************************************************
 *                                                                             *
 *  -------------------------------------                                      *
 *   Amsterdam Density Functional  (ADF)         2004.01   June 8, 2004        *
 *  -------------------------------------                                      *
 *                                               Build 200410211341            *
 *                                                                             *
 *                                                                             *
 *                              =================                              *
 *                              |               |                              *
 *                              |     A D F     |                              *
 *                              |               |                              *
 *                              =================                              *
 *                                                                             *
 *                                                                             *
 *   Online information and documentation:  http://www.scm.com                 *
 *   E-mail:  support@scm.com   info@scm.com                                   *
 *                                                                             *
 *   Scientific publications using ADF results must be properly referenced     *
 *   See the User Manuals (or the web site) for recommended citations          *
 *                                                                             *
 ****************************  pentium_linux_ifc  ******************************
 
 ADF 2004.01  RunTime: May08-2006 12:27:03
 Carbon (I)



 ===========================
 A T T A C H E D   F I L E S
 ===========================
  
 CREATE - Data File:    /usr/local/adf2004.01/atomicdata/SZ/C
                        Carbon (I)



 ===============================
 M O D E L   P A R A M E T E R S
 ===============================
  
 DENSITY FUNCTIONAL POTENTIAL (scf)
    LDA:                               Exchange only                           == Not Default ==
    Gradient Corrections:              Becke88 LYP                             == Not Default ==

 SPIN  (restricted / unrestr.)
    Molecule:                          Restricted                               

 OTHER ASPECTS
    Relativistic Corrections:          ---                                      
    Core Treatment:                    Frozen Orbital(s)                        

    Electric Field:                    ---                                      

    Hyperfine or Zeeman Interaction:   ---                                      



 =====================================
 S Y M M E T R Y ,   E L E C T R O N S
 =====================================
  
 Symmetry: ATOM

 Irreducible Representations, including subspecies
 -------------------------------------------------
 S
 P:x  P:y  P:z
 D:z2  D:x2-y2  D:xy  D:xz  D:yz
 F:z3  F:z  F:xyz  F:z2x  F:z2y  F:x  F:y


 Configuration of Valence Electrons
 ==================================

          Occupation Numbers
          -------------------------------------------------
 S        2*2
 P        2
 D        0
 F        0
          -------------------------------------------------

 Total:   6

 Net Charge: 0 (Nuclei minus Electrons)

 Preset values for MO occupations will be applied through SCF cycle no. 1000000
 Thereafter, the program will assign electrons to MOs that are spatially
 similar to the occupied MOs in a "reference" cycle ("KeepOrbitals").
 The reference cycle is always the PREVIOUS cycle: it will evolve with
 the SCF procedure.



 ================================
 (Slater-type)  F U N C T I O N S  ***  (Basis and Fit)  ***
 ================================
  

 Atom Type    1  (C)
 ==============

 Valence Basis Sets:   3
 -----------------------
   1 S    5.670000
   2 S    1.720000
   2 P    1.720000

 Charge Fitting Sets (for the computation of the Coulomb Potential):  22
 -----------------------------------------------------------------------
   1 S   11.340000
   2 S   13.540000
   2 S    9.660000
   2 S    6.890000
   2 S    4.920000
   3 S    5.130000
   3 S    3.860000
   3 S    2.900000
   3 S    2.180000
   3 S    1.640000
   2 P    7.390000
   2 P    4.710000
   3 P    4.410000
   3 P    3.020000
   3 P    2.060000
   3 D    3.440000
   3 D    2.690000
   3 D    2.100000
   3 D    1.640000
   4 F    5.400000
   4 F    3.550000
   5 G    4.500000


 BAS: List of all Elementary Cartesian Basis Functions
 =====================================================

 The numbering in the list below (to the right of the function characteristics) is referred
 to in print-outs of MO eigenvectors and Mulliken populations in the BAS representation
 (as contrasted to the SFO representation).

 Notes:
 1. The functions are characterized by a polynomial prefactor (powers of x,y,z and r) and
    an exponential decay factor alpha.
 2. Since the basis sets are specific for an atom TYPE, the individual functions occur on
    all atoms of that type.
 3. The word 'Core' in the left margin signals that it is a Core Function (CF) : not a
    degree of freedom in the valence set, but only used to ensure orthogonalization of
    the other valence basis functions on the frozen Core Orbitals.


 (power of) X  Y  Z  R     Alpha  on Atom
            ==========     =====     ==========

 C                                    1
                                  ---------------------------------------------------------------------------
            0  0  0  0     5.670      1
            0  0  0  1     1.720      2
            1  0  0  0     1.720      3
            0  1  0  0     1.720      4
            0  0  1  0     1.720      5
1
 ***************************************************************************************************



                                              ***********************
                                              *  T E C H N I C A L  *
                                              ***********************
  



 =============================================================
 P A R A L L E L I Z A T I O N  and  V E C T O R I Z A T I O N
 =============================================================
  
 Nr of parallel processes:                                1
 Internal max. (compile-time) nr of processes:          128
 Maximum vector length in NumInt loops:                 128



 ===============
 I O  vs.  C P U  ***  (store numerical data on disk or recalculate)  ***
 ===============
  
 Basis functions:   recalculate when needed
 Fit functions:     recalculate when needed

 IO buffersize (Mb):                                      8.000000

 Max memory usage (Mb):                                  80.000000
 Dynamic allocation blocks (Mb):
   Reals:                                                 1.000000
   Integers:                                              0.500000
   Logicals:                                              0.031250
   Strings:                                               1.500000



 =====================
 S C F   U P D A T E S
 =====================
  
 Max. nr. of cycles:                               100
 Convergence criterion:                              0.0000000100
   secondary criterion:                              0.0000000100

 Mix parameter (when DIIS does not apply):           0.2000000000
 Special mix parameter for the first cycle:          1.0000000000


 DIIS (Direct Inversion in Iteration Space)
    Replace damping when SCF Error is below:         0.5000000000
    Apply anyway after SCF cycle:
                                                     5
    (Max.) nr. of expansion vectors:                10

    Upperbound on expansion coefficients:            5.0000000000
    (when exceeded, IterationSpace is re-built)
    2nd Upperbound on coefficients:                 25.0000000000
    (when exceeded, simple damping will be used)
 Automatic ElectronSmearing (in case of problematic SCF convergence) disabled



 =================
 P R E C I S I O N  ***  (General: NumInt, NeglectFunctionTails, ...)  ***
 =================
  

 NumInt:           Target precision:                10.0000000000
 -------           Initial precision:               10.0000000000
                   Min. precision (optimization):   10.0000000000

 Neglect Functions:          Basis functions:        0.1000000000E-11
 ------------------          Fit functions:          0.1000000000E-11



 ===========================
 L I N E A R   S C A L I N G
 ===========================
  

 Cut-off radii density fit:                        0.1000000000E-13
 Overlap cut-off criterion AO matrix elements:     0.1000000000E-11
 Cut-offs for Coulomb potential and fitted density:0.1000000000E-13
 Cut-off criterion for Coulomb multipole terms:    0.1000000000E-13
1
 ***************************************************************************************************



                                            ***************************
                                            *  C O M P U T A T I O N  *
                                            ***************************
  

 Number of elements of the density matrix on this node (used, total):        15        15



 ====================================================
 Numerical Integration : Voronoi Polyhedra (Te Velde)  ***  (parameters, tests)  ***
 ====================================================
  
 General Accuracy Parameter :                         10.00

 Symmetry used in the points section:  ATOM  


 Summary of the Symmetry Unique Points:
 --------------------------------------
    Nr. of used Symmetry Operators                     1

    Points in the Atomic Spheres                      48
    Points in the Atomic Polyhedra                     0
    Points in the Outer Region                         0
    ----------------------------------------------------
    Total                                             48

    Sum of Weights                                 58501.056183

 Total nr. of points:         48
 Nr. of blocks:                1
 Block length:                48
 Nr. of dummy points:          0


 Test of Precision of the Numerical Integration Grid
 ===================================================

 Integral of the Total Core Density:                   0.00000000000000



 =====
 S C F
 =====
  

 CYCLE    1
 orbitals (Q,E):
 ---------------
 S :1...2            ( 2.00   -17.2281)  ( 2.00    -3.3737)   
 P :1...1            ( 2.00    -3.0741)   

 CYCLE    2
 d-Pmat  mean:  0.36E-15
 imax=      2:  0.13E-14
 orbitals (Q,E):
 ---------------
 S :1...2            ( 2.00    -9.7601)  ( 2.00    -0.3637)   
 P :1...1            ( 2.00    -0.0244)   

 SCF CONVERGED

 CYCLE    3
1
 ***************************************************************************************************



                                                *******************
                                                *  R E S U L T S  *
                                                *******************
  

 Orbital Energies, per Irrep and Spin:
 ======================================
                        Occup              E (au)              E (eV)       Diff (eV) with prev. cycle
                        -----      --------------------        ------       --------------------------
 S
               1        2.000     -0.97601381783324E+01      -265.587               1.98E-12
               2        2.000     -0.36369143932934E+00        -9.897               1.87E-12
 P
               1        2.000     -0.24432272455066E-01        -0.665               1.86E-12


 Partially Occupied:
               1 P                -0.24432272455066E-01
  
 HOMO :        2 S                -0.36369143932934E+00
  


 Orbital Energies, all Irreps
 ========================================

 Irrep        no.  (spin)   Occup              E (au)                E (eV)
 ---------------------------------------------------------------------------
 S             1             2.00       -0.97601381783324E+01      -265.5870
 S             2             2.00       -0.36369143932934E+00        -9.8966
 P             1             2.00       -0.24432272455066E-01        -0.6648


 Orbital Energies of the Core Orbitals:
 ======================================
 (Note that the atoms are grouped by atomtype, see the labels, and may hence NOT be in input order)

 AtomType  Orbital  Atom                   E (au)                        E (eV)
 --------  -------  ----           --------------------        ----------------



 =======================================
 M U L L I K E N   P O P U L A T I O N S
 =======================================
  
 The survey below gives for each atom:
 a) the total charge (Z minus electrons)
 b) the net spin polarization (nr of electrons spin-A minus spin-B)
 c) for each spin the atomic electron valence density (integrated) per L-value.

 Atom              Charge    Spin density          S         P         D         F
 ----              ------    ------------       ------    ------    ------    ------
 1 C               0.0000                       4.0000    2.0000    0.0000    0.0000

 Populations of individual BAS functions
 ----------------------------------------
 1 C            2.0000  2.0000  0.6667  0.6667  0.6667

 Gross Charges per Atom (Z minus electrons)
 ==========================================
             0.0000
 Net Total:  0.00000000


 Atom-Atom Population Matrix (off-diagonal elements not doubled)
 ===============================================================

     1 :     6.0000



 =============
 Dipole Moment  ***  (Debye)  ***
 =============
  
 Vector   :         0.00000000      0.00000000      0.00000000
 Magnitude:         0.00000000

 This molecular dipole moment is calculated with analytic integration



 =========================================
 Quadrupole Moment (Buckingham convention)  ***  (a.u.)  ***
 =========================================
  
      quad-xx        quad-xy        quad-xz        quad-yy        quad-yz        quad-zz
      0.00000000     0.00000000     0.00000000     0.00000000     0.00000000     0.00000000

 This molecular quadrupole moment is calculated with analytic integration



 ===============================================================================
 Electrostatic potential at the Nuclei due to valence electrons and other nuclei
 ===============================================================================
  
         Atom                  Potential
         ----                  ---------
     1)   C                  14.98166635
 
 
 ========================
 No memory problems found
 ========================
 
 Maximum number of active allocate calls:          26
 
 *******************************************************************************

                             A D F   E X I T
 NORMAL TERMINATION



 =================
 Timing Statistics
 =================
  
 Total Used :                     CPU=        0.23      System=        0.03     Elapsed=        9.77

 Calls  Section                     ( Mean, Percentage )
 ---------------------------------------------------------------------------------------------------
     3  ><      ................      0.00    4.35             0.00    0.00             0.25    7.63
     1  INIT    ................      0.02    8.70             0.00    0.00             1.68   17.22
     1  GEOMET  ................      0.02    8.70             0.02   66.67             1.20   12.27
     1  INPUTA  ................      0.00    0.00             0.01   33.33             0.51    5.21
     1  MAINSY  ................      0.00    0.00             0.00    0.00             0.54    5.55
     1  SYMFIT  ................      0.00    0.00             0.00    0.00             0.00    0.01
     1  CORORT  ................      0.00    0.00             0.00    0.00             0.16    1.60
     1  SYMORB  ................      0.00    0.00             0.00    0.00             0.04    0.37
     1  FITINT  ................      0.01    4.35             0.00    0.00             0.42    4.29
     1  CLSMAT  ................      0.00    0.00             0.00    0.00             0.14    1.47
     1  ORTHON  ................      0.00    0.00             0.00    0.00             0.20    2.06
     1  CRTP12  ................      0.01    4.35             0.00    0.00             0.16    1.61
     1  ETALOW  ................      0.00    0.00             0.00    0.00             0.00    0.02
     1  GENPT   ................      0.01    4.35             0.00    0.00             0.54    5.54
     1  PTCOR   ................      0.01    4.35             0.00    0.00             0.20    2.03
     1  PTBAS   ................      0.01    4.35             0.00    0.00             0.15    1.51
     4  FOCK00  ................      0.00    8.70             0.00    0.00             0.16    6.67
     3  FOCKY   ................      0.01   13.04             0.00    0.00             0.01    0.37
     3  FOCKTR  ................      0.00    0.00             0.00    0.00             0.00    0.03
     3  FOCKNM  ................      0.00    0.00             0.00    0.00             0.00    0.00
     3  SDIIS   ................      0.00    4.35             0.00    0.00             0.14    4.35
     3  EMERGE  ................      0.01   13.04             0.00    0.00             0.27    8.25
     3  RHOFIH  ................      0.00    4.35             0.00    0.00             0.00    0.05
     1  COREPS  ................      0.01    4.35             0.00    0.00             0.00    0.03
     1  POPAN   ................      0.00    0.00             0.00    0.00             0.20    2.03
     1  DEBYE   ................      0.01    4.35             0.00    0.00             0.12    1.22
     1  QMPOT   ................      0.01    4.35             0.00    0.00             0.00    0.01
     1  EXIT PROCEDURE .........      0.00    0.00             0.00    0.00             0.84    8.58


 Currently Open Files (EXIT00)
 ====================

 Unit    Access Format  Status   Type       Ident (file)
 -------------------------------------------------------
   3      SEQ    FORM   TRANSP  NORMAL      LOGFILE
                                          ( logfile )
   9      SEQ    BINA   LOCAL   NORMAL      $UNKNOWN


 Buffered I/O statistics
 =======================
 Memory available:                      8388608
 Number of records fitting in memory:      2028
 Input :   3.4% of                          783  *4k bytes
 Output:  15.0% of                          693  *4k bytes
 Records from serial files evicted:           0
                    others evicted:           0
 Hash table lookups:       4082 with          0 conflicts (  0.00%)


 Workspace Manager statistics
 ============================
 Allocate  :     311
 Delocate  :     102
 Relocate  :      18
 Extend    :       0
 Find      :      85
 Available :       7
 Check     :       3
 Hide      :       4
 Freeze    :       4
 Print     :       1

 (All arrays delocated)

 ***************************************************************************************************
 (LOGFILE)
 <Apr24-2006> <20:59:54>  ADF 2004.01  RunTime: Apr24-2006 20:59:54
 <Apr24-2006> <20:59:54>  Hydrogen (I)
 <Apr24-2006> <20:59:55>  RunType   : CREATE
 <Apr24-2006> <20:59:56>  Net Charge: 0 (Nuclei minus Electrons)
 <Apr24-2006> <20:59:57>  Symmetry  : ATOM
 <Apr24-2006> <21:00:00>  >>>> CORORT
 <Apr24-2006> <21:00:01>  >>>> FITINT
 <Apr24-2006> <21:00:01>  >>>> CLSMAT
 <Apr24-2006> <21:00:02>  >>>> ORTHON
 <Apr24-2006> <21:00:02>  >>>> CRTP12
 <Apr24-2006> <21:00:02>  >>>> GENPT
 <Apr24-2006> <21:00:02>  Acc.Num.Int.=  10.000
 <Apr24-2006> <21:00:03>  Block Length=  34
 <Apr24-2006> <21:00:04>  >>>> PTCOR
 <Apr24-2006> <21:00:04>  >>>> PTBAS
 <Apr24-2006> <21:00:04>  >>>> CYCLE
 <Apr24-2006> <21:00:04>    1
 <Apr24-2006> <21:00:05>    2  ErrMat   0.00000000  MaxEl  0.00000000
 <Apr24-2006> <21:00:05>  SCF converged
 <Apr24-2006> <21:00:05>    3  ErrMat   0.00000000  MaxEl  0.00000000
 <Apr24-2006> <21:00:05>   Solutions with partially occupied orbitals may not be
 <Apr24-2006> <21:00:05>   lowest in energy. You might consider lowering the
 <Apr24-2006> <21:00:06>   symmetry in the input and explicitly specifying integer
 <Apr24-2006> <21:00:06>   occupations. In that case always check that you obtain
 <Apr24-2006> <21:00:06>   an aufbau solution.
 <Apr24-2006> <21:00:06>  >>>> COREPS
 <Apr24-2006> <21:00:06>  >>>> POPAN
 <Apr24-2006> <21:00:07>  >>>> DEBYE
 <Apr24-2006> <21:00:07>  NORMAL TERMINATION
 <Apr24-2006> <21:00:08>  END
 <Apr24-2006> <21:00:10>  ADF 2004.01  RunTime: Apr24-2006 21:00:10
 <Apr24-2006> <21:00:10>  Carbon (I)
 <Apr24-2006> <21:00:11>  RunType   : CREATE
 <Apr24-2006> <21:00:12>  Net Charge: 0 (Nuclei minus Electrons)
 <Apr24-2006> <21:00:12>  Symmetry  : ATOM
 <Apr24-2006> <21:00:13>  >>>> CORORT
 <Apr24-2006> <21:00:14>  >>>> FITINT
 <Apr24-2006> <21:00:14>  >>>> CLSMAT
 <Apr24-2006> <21:00:14>  >>>> ORTHON
 <Apr24-2006> <21:00:14>  >>>> CRTP12
 <Apr24-2006> <21:00:15>  >>>> GENPT
 <Apr24-2006> <21:00:15>  Acc.Num.Int.=  10.000
 <Apr24-2006> <21:00:15>  Block Length=  48
 <Apr24-2006> <21:00:15>  >>>> PTCOR
 <Apr24-2006> <21:00:15>  >>>> PTBAS
 <Apr24-2006> <21:00:15>  >>>> CYCLE
 <Apr24-2006> <21:00:16>    1
 <Apr24-2006> <21:00:16>    2  ErrMat   0.00000000  MaxEl  0.00000000
 <Apr24-2006> <21:00:16>  SCF converged
 <Apr24-2006> <21:00:17>    3  ErrMat   0.00000000  MaxEl  0.00000000
 <Apr24-2006> <21:00:17>   Solutions with partially occupied orbitals may not be
 <Apr24-2006> <21:00:17>   lowest in energy. You might consider lowering the
 <Apr24-2006> <21:00:17>   symmetry in the input and explicitly specifying integer
 <Apr24-2006> <21:00:17>   occupations. In that case always check that you obtain
 <Apr24-2006> <21:00:17>   an aufbau solution.
 <Apr24-2006> <21:00:18>  >>>> COREPS
 <Apr24-2006> <21:00:18>  >>>> POPAN
 <Apr24-2006> <21:00:18>  >>>> DEBYE
 <Apr24-2006> <21:00:18>  NORMAL TERMINATION
 <Apr24-2006> <21:00:19>  END
 <Apr24-2006> <21:00:21>  ADF 2004.01  RunTime: Apr24-2006 21:00:21
 <Apr24-2006> <21:00:21>  1,4-divinyl-benzene, SZ, BLYP, nosym
 <Apr24-2006> <21:00:22>  RunType   : SINGLE POINT
 <Apr24-2006> <21:00:23>  Net Charge: 0 (Nuclei minus Electrons)
 <Apr24-2006> <21:00:23>  Symmetry  : NOSYM
 <Apr24-2006> <21:00:24>  >>>> FRAGM
 <Apr24-2006> <21:00:29>  >>>> CORORT
 <Apr24-2006> <21:00:29>  >>>> FITINT
 <Apr24-2006> <21:00:33>  >>>> CLSMAT
 <Apr24-2006> <21:00:33>  >>>> ORTHON
 <Apr24-2006> <21:00:34>  >>>> CRTP12
 <Apr24-2006> <21:00:34>  >>>> GENPT
 <Apr24-2006> <21:00:34>  Acc.Num.Int.=   4.000
 <Apr24-2006> <21:00:35>  Block Length= 128
 <Apr24-2006> <21:03:23>  >>>> PTCOR
 <Apr24-2006> <21:03:58>  >>>> PTBAS
 <Apr24-2006> <21:03:59>  >>>> CYCLE
 <Apr24-2006> <21:04:04>    1
 <Apr24-2006> <21:04:12>    2  ErrMat   0.12986351  MaxEl -0.03422367
 <Apr24-2006> <21:04:21>    3  ErrMat   0.07273733  MaxEl  0.01521982
 <Apr24-2006> <21:04:29>    4  ErrMat   0.05838857  MaxEl -0.02640371
 <Apr24-2006> <21:04:38>    5  ErrMat   0.02967369  MaxEl -0.00642566
 <Apr24-2006> <21:04:48>    6  ErrMat   0.00378823  MaxEl -0.00088618
 <Apr24-2006> <21:04:57>    7  ErrMat   0.00027062  MaxEl  0.00008278
 <Apr24-2006> <21:05:06>    8  ErrMat   0.00010644  MaxEl  0.00003609
 <Apr24-2006> <21:05:18>    9  ErrMat   0.00002982  MaxEl -0.00000876
 <Apr24-2006> <21:05:33>   10  ErrMat   0.00000225  MaxEl -0.00000064
 <Apr24-2006> <21:05:33>  SCF converged
 <Apr24-2006> <21:05:41>   11  ErrMat   0.00000071  MaxEl  0.00000024
 <Apr24-2006> <21:05:42>  >>>> COREPS
 <Apr24-2006> <21:05:49>  >>>> TOTEN
 <Apr24-2006> <21:06:20>  >>>> POPAN
 <Apr24-2006> <21:06:20>  >>>> DEBYE
 <Apr24-2006> <21:06:20>  >>>> AMETS
 <Apr24-2006> <21:06:20>   Bond Energy LDA      -5.63065039 a.u.
 <Apr24-2006> <21:06:21>   Bond Energy LDA    -153.21785534 eV
 <Apr24-2006> <21:06:21>           + GGA-X      -4.80722198 a.u.
 <Apr24-2006> <21:06:21>           + GGA-X    -130.81121914 eV
 <Apr24-2006> <21:06:21>          + GGA-XC      -5.16295009 a.u.
 <Apr24-2006> <21:06:21>          + GGA-XC    -140.49107747 eV
 <Apr24-2006> <21:06:21>  >>>> POPUL
 <Apr24-2006> <21:06:22>  NORMAL TERMINATION
 <Apr24-2006> <21:06:23>  END
 <May08-2006> <12:26:51>  ADF 2004.01  RunTime: May08-2006 12:26:51
 <May08-2006> <12:26:51>  Hydrogen (I)
 <May08-2006> <12:26:53>  RunType   : CREATE
 <May08-2006> <12:26:53>  Net Charge: 0 (Nuclei minus Electrons)
 <May08-2006> <12:26:53>  Symmetry  : ATOM
 <May08-2006> <12:26:55>  >>>> CORORT
 <May08-2006> <12:26:55>  >>>> FITINT
 <May08-2006> <12:26:56>  >>>> CLSMAT
 <May08-2006> <12:26:56>  >>>> ORTHON
 <May08-2006> <12:26:56>  >>>> CRTP12
 <May08-2006> <12:26:56>  >>>> GENPT
 <May08-2006> <12:26:56>  Acc.Num.Int.=  10.000
 <May08-2006> <12:26:57>  Block Length=  34
 <May08-2006> <12:26:57>  >>>> PTCOR
 <May08-2006> <12:26:57>  >>>> PTBAS
 <May08-2006> <12:26:57>  >>>> CYCLE
 <May08-2006> <12:26:58>    1
 <May08-2006> <12:26:58>    2  ErrMat   0.00000000  MaxEl  0.00000000
 <May08-2006> <12:26:58>  SCF converged
 <May08-2006> <12:26:58>    3  ErrMat   0.00000000  MaxEl  0.00000000
 <May08-2006> <12:26:59>   Solutions with partially occupied orbitals may not be
 <May08-2006> <12:26:59>   lowest in energy. You might consider lowering the
 <May08-2006> <12:26:59>   symmetry in the input and explicitly specifying integer
 <May08-2006> <12:26:59>   occupations. In that case always check that you obtain
 <May08-2006> <12:26:59>   an aufbau solution.
 <May08-2006> <12:27:00>  >>>> COREPS
 <May08-2006> <12:27:00>  >>>> POPAN
 <May08-2006> <12:27:00>  >>>> DEBYE
 <May08-2006> <12:27:00>  NORMAL TERMINATION
 <May08-2006> <12:27:01>  END
 <May08-2006> <12:27:03>  ADF 2004.01  RunTime: May08-2006 12:27:03
 <May08-2006> <12:27:03>  Carbon (I)
 <May08-2006> <12:27:04>  RunType   : CREATE
 <May08-2006> <12:27:05>  Net Charge: 0 (Nuclei minus Electrons)
 <May08-2006> <12:27:05>  Symmetry  : ATOM
 <May08-2006> <12:27:07>  >>>> CORORT
 <May08-2006> <12:27:07>  >>>> FITINT
 <May08-2006> <12:27:07>  >>>> CLSMAT
 <May08-2006> <12:27:07>  >>>> ORTHON
 <May08-2006> <12:27:08>  >>>> CRTP12
 <May08-2006> <12:27:08>  >>>> GENPT
 <May08-2006> <12:27:08>  Acc.Num.Int.=  10.000
 <May08-2006> <12:27:08>  Block Length=  48
 <May08-2006> <12:27:08>  >>>> PTCOR
 <May08-2006> <12:27:08>  >>>> PTBAS
 <May08-2006> <12:27:09>  >>>> CYCLE
 <May08-2006> <12:27:09>    1
 <May08-2006> <12:27:09>    2  ErrMat   0.00000000  MaxEl  0.00000000
 <May08-2006> <12:27:09>  SCF converged
 <May08-2006> <12:27:09>    3  ErrMat   0.00000000  MaxEl  0.00000000
 <May08-2006> <12:27:10>   Solutions with partially occupied orbitals may not be
 <May08-2006> <12:27:10>   lowest in energy. You might consider lowering the
 <May08-2006> <12:27:10>   symmetry in the input and explicitly specifying integer
 <May08-2006> <12:27:10>   occupations. In that case always check that you obtain
 <May08-2006> <12:27:10>   an aufbau solution.
 <May08-2006> <12:27:10>  >>>> COREPS
 <May08-2006> <12:27:10>  >>>> POPAN
 <May08-2006> <12:27:11>  >>>> DEBYE
 <May08-2006> <12:27:11>  NORMAL TERMINATION
 <May08-2006> <12:27:12>  END
(INPUT FILE)
title 1,4-divinyl-benzene, SZ, BLYP

charge 0 0
atoms
 C     0.000000     0.000000     0.000000
 C     0.000000     0.000000     1.391558
 C     1.199912     0.000000     2.091623
 C     2.381427     0.000000     1.405722
 C     2.381427     0.000000     0.014165
 H    -0.949187     0.000000     1.937349
 H     1.193861     0.000000     3.187592
 H     3.330614     0.000000    -0.531626
 C     3.669632     0.000000     2.146185
 C     4.871380     0.000000     1.546808
 H     4.930305     0.000000     0.444834
 H     3.585803     0.000000     3.241279
 H     5.787099     0.000000     2.100305
 C    -1.288205     0.000000    -0.740463
 H    -1.204377     0.000000    -1.835557
 C    -2.489953     0.000000    -0.141086
 H    -2.548878     0.000000     0.960888
 H    -3.405672     0.000000    -0.694583
 C     1.181515     0.000000    -0.685901
 H     1.187566     0.000000    -1.781870
end

XC
 GGA Blyp
end

EPrint
 SCF Err1
End

geometry
end

Fragments
H t21.H
C t21.C
End
end input

 *******************************************************************************
 *                                                                             *
 *  -------------------------------------                                      *
 *   Amsterdam Density Functional  (ADF)         2004.01   June 8, 2004        *
 *  -------------------------------------                                      *
 *                                               Build 200410211341            *
 *                                                                             *
 *                                                                             *
 *                              =================                              *
 *                              |               |                              *
 *                              |     A D F     |                              *
 *                              |               |                              *
 *                              =================                              *
 *                                                                             *
 *                                                                             *
 *   Online information and documentation:  http://www.scm.com                 *
 *   E-mail:  support@scm.com   info@scm.com                                   *
 *                                                                             *
 *   Scientific publications using ADF results must be properly referenced     *
 *   See the User Manuals (or the web site) for recommended citations          *
 *                                                                             *
 ****************************  pentium_linux_ifc  ******************************
 
 ADF 2004.01  RunTime: May08-2006 12:27:14
 1,4-divinyl-benzene, SZ, BLYP



 ===========================
 A T T A C H E D   F I L E S
 ===========================
  



 ===============================
 M O D E L   P A R A M E T E R S
 ===============================
  
 DENSITY FUNCTIONAL POTENTIAL (scf)
    LDA:                               Exchange only                           == Not Default ==
    Gradient Corrections:              Becke88 LYP                             == Not Default ==

 SPIN  (restricted / unrestr.)
    Molecule:                          Restricted                               
    Fragments:                         Restricted                               

 OTHER ASPECTS
    Relativistic Corrections:          ---                                      
    Core Treatment:                    Frozen Orbital(s)                        

    Electric Field:                    ---                                      

    Hyperfine or Zeeman Interaction:   ---                                      


 Fragment File(s)
 ----------------
 C:
         file : t21.C
         jobid: ADF 2004.01  RunTime: May08-2006 12:27:03
         title: Carbon (I)
 H:
         file : t21.H
         jobid: ADF 2004.01  RunTime: May08-2006 12:26:51
         title: Hydrogen (I)



                                   *********************************************
                                   *  R U N   T Y P E : GEOMETRY OPTIMIZATION  *
                                   *********************************************
  



 ===============
 G E O M E T R Y  ***  Planar Molecule  ***
 ===============
  

 ATOMS
 =====                            X Y Z                    CHARGE
                                (Angstrom)             Nucl     +Core       At.Mass
                       --------------------------    ----------------       -------
    1  C              -1.1907    0.7029    0.0000      6.00      6.00       12.0000
    2  C              -1.1907   -0.6887    0.0000      6.00      6.00       12.0000
    3  C               0.0092   -1.3888    0.0000      6.00      6.00       12.0000
    4  C               1.1907   -0.7029    0.0000      6.00      6.00       12.0000
    5  C               1.1907    0.6887    0.0000      6.00      6.00       12.0000
    6  H              -2.1399   -1.2345    0.0000      1.00      1.00        1.0078
    7  H               0.0031   -2.4847    0.0000      1.00      1.00        1.0078
    8  H               2.1399    1.2345    0.0000      1.00      1.00        1.0078
    9  C               2.4789   -1.4433    0.0000      6.00      6.00       12.0000
   10  C               3.6807   -0.8439    0.0000      6.00      6.00       12.0000
   11  H               3.7396    0.2580    0.0000      1.00      1.00        1.0078
   12  H               2.3951   -2.5384    0.0000      1.00      1.00        1.0078
   13  H               4.5964   -1.3974    0.0000      1.00      1.00        1.0078
   14  C              -2.4789    1.4433    0.0000      6.00      6.00       12.0000
   15  H              -2.3951    2.5384    0.0000      1.00      1.00        1.0078
   16  C              -3.6807    0.8439    0.0000      6.00      6.00       12.0000
   17  H              -3.7396   -0.2580    0.0000      1.00      1.00        1.0078
   18  H              -4.5964    1.3974    0.0000      1.00      1.00        1.0078
   19  C              -0.0092    1.3888    0.0000      6.00      6.00       12.0000
   20  H              -0.0031    2.4847    0.0000      1.00      1.00        1.0078


 FRAGMENTS
 =========             Atoms in this Fragment     Cart. coord.s (Angstrom)
                       -------------------------------------------------------
    1  C                   1  C            -1.190713     0.702861     0.000000
    2  C                   2  C            -1.190713    -0.688697     0.000000
    3  C                   3  C             0.009198    -1.388762     0.000000
    4  C                   4  C             1.190713    -0.702861     0.000000
    5  C                   5  C             1.190713     0.688697     0.000000
    6  C                   9  C             2.478918    -1.443324     0.000000
    7  C                  10  C             3.680667    -0.843947     0.000000
    8  C                  14  C            -2.478918     1.443324     0.000000
    9  C                  16  C            -3.680667     0.843947     0.000000
   10  C                  19  C            -0.009198     1.388762     0.000000
   11  H                   6  H            -2.139900    -1.234487     0.000000
   12  H                   7  H             0.003148    -2.484731     0.000000
   13  H                   8  H             2.139900     1.234487     0.000000
   14  H                  11  H             3.739591     0.258027     0.000000
   15  H                  12  H             2.395090    -2.538418     0.000000
   16  H                  13  H             4.596386    -1.397444     0.000000
   17  H                  15  H            -2.395090     2.538418     0.000000
   18  H                  17  H            -3.739591    -0.258027     0.000000
   19  H                  18  H            -4.596386     1.397444     0.000000
   20  H                  20  H            -0.003148     2.484731     0.000000


 Interatomic Distance Matrix (Angstrom)
 --------------------------------------

   1)     0.000
   2)     1.392   0.000
   3)     2.411   1.389   0.000
   4)     2.765   2.381   1.366   0.000
   5)     2.381   2.751   2.390   1.392   0.000
   6)     2.157   1.095   2.155   3.373   3.846   0.000
   7)     3.404   2.157   1.096   2.141   3.388   2.481   0.000
   8)     3.373   3.846   3.380   2.157   1.095   4.941   4.289   0.000
   9)     4.251   3.746   2.470   1.486   2.491   4.624   2.686   2.699   0.000
  10)     5.111   4.874   3.712   2.494   2.924   5.834   4.027   2.587   1.343   0.000
  11)     4.950   5.020   4.078   2.724   2.585   6.066   4.635   1.874   2.118   1.104
          0.000
  12)     4.834   4.035   2.648   2.195   3.445   4.719   2.393   3.782   1.098   2.127
          3.103   0.000
  13)     6.156   5.830   4.587   3.476   3.994   6.738   4.720   3.600   2.118   1.070
          1.864   2.479   0.000
  14)     1.486   2.491   3.770   4.251   3.746   2.699   4.647   4.624   5.737   6.571
          6.330   6.294   7.624   0.000
  15)     2.195   3.445   4.605   4.834   4.035   3.782   5.566   4.719   6.294   6.954
          6.545   6.980   8.023   1.098   0.000
  16)     2.494   2.924   4.313   5.111   4.874   2.587   4.965   5.834   6.571   7.552
          7.443   6.954   8.575   1.343   2.127   0.000
  17)     2.724   2.585   3.916   4.950   5.020   1.874   4.355   6.066   6.330   7.443
          7.497   6.545   8.413   2.118   3.103   1.104   0.000
  18)     3.476   3.994   5.383   6.156   5.830   3.600   6.019   6.738   7.624   8.575
          8.413   8.023   9.608   2.118   2.479   1.070   1.864   0.000
  19)     1.366   2.390   2.778   2.411   1.389   3.380   3.874   2.155   3.770   4.313
          3.916   4.605   5.383   2.470   2.648   3.712   4.078   4.587   0.000
  20)     2.141   3.388   3.874   3.404   2.157   4.289   4.969   2.481   4.647   4.965
          4.355   5.566   6.019   2.686   2.393   4.027   4.635   4.720   1.096   0.000

 Min. Distance =    1.0700
 Max. Distance =    9.6082



 =====================================
 S Y M M E T R Y ,   E L E C T R O N S
 =====================================
  
 Symmetry: C(2H)

 Irreducible Representations, including subspecies
 -------------------------------------------------
 A.g
 B.g
 A.u
 B.u


 Configuration of Valence Electrons
 ==================================
 ( determined in the SCF procedure )

 Total:   70

 Net Charge: 0 (Nuclei minus Electrons)

 Aufbau principle for MO occupations will be applied through SCF cycle no.      30
 Thereafter, the program will assign electrons to MOs that are spatially
 similar to the occupied MOs in a "reference" cycle ("KeepOrbitals").
 The reference cycle is always the PREVIOUS cycle: it will evolve with
 the SCF procedure.
1
 ***************************************************************************************************



                                      ****************************************
                                      *  B U I L D : (Fragments, Functions)  *
                                      ****************************************
  



 =======
 S F O s  ***  (Symmetrized Fragment Orbitals)  ***
 =======
  
 SFOs are linear combinations of (valence) Fragment Orbitals (FOs), such that the SFOs transform as the
 irreducible representations of the (molecular) symmetry group. Each SFO is therefore characterized by
 an irrep of the molecule and by a few (or only one) generating FOs.
 The SFOs constitute a symmetry-adapted basis for the Fock matrix. The MO eigenvector coefficients in
 this basis provide a direct interpretation of the MOs in terms of Frontier Orbital Theory.

 The SFOs are combined with auxiliary Core Functions (CFs) to ensure orthogonalization on the (frozen)
 Core Orbitals (COs). The Core-orthogonalized SFOs (CSFOs) constitute the true Fock basis.

 The FOs, and hence also the (C)SFOs are combinations of the elementary basis functions (BAS). The basis
 functions that participate in the description of the SFOs depend on the irrep. The indices of the
 involved functions are printed below for each irrep.
 (The complete list of primitive basis functions is printed in another section)


 Total nr. of (C)SFOs (summation over all irreps) :    60

 NOTE: a (C)SFO that is defined as a combination of more than one FO is usually NOT normalized.



                                       === A.g ===
 Nr. of SFOs :   25
 Cartesian basis functions that participate in this irrep (total number =    50) :
      1    16     2    17     3     4    18    19     6    21
      7    22     8     9    23    24    11    46    12    47
     13    14    48    49    26    36    27    37    28    29
     38    39    31    41    32    42    33    34    43    44
     51    53    52    60    54    58    55    57    56    59

    SFO  (index         Fragment          Generating    Expansion in Fragment Orbitals
  indx  incl.CFs)   Occup   Orb.Energy   FragmentType  Coeff.   Orbital     on Fragment
 --------------------------------------------------------------------------------------
     1       1      2.000      -9.760 au  C             0.71      1 S               1
                        (    -265.587 eV)               0.71      1 S               4
     2       2      2.000      -0.364 au  C             0.71      2 S               1
                        (      -9.897 eV)               0.71      2 S               4
     3       3      0.667      -0.024 au  C             0.71      1 P:x             1
                        (      -0.665 eV)              -0.71      1 P:x             4
     4       4      0.667      -0.024 au  C             0.71      1 P:y             1
                        (      -0.665 eV)              -0.71      1 P:y             4
     5       5      2.000      -9.760 au  C             0.71      1 S               2
                        (    -265.587 eV)               0.71      1 S               5
     6       6      2.000      -0.364 au  C             0.71      2 S               2
                        (      -9.897 eV)               0.71      2 S               5
     7       7      0.667      -0.024 au  C             0.71      1 P:x             2
                        (      -0.665 eV)              -0.71      1 P:x             5
     8       8      0.667      -0.024 au  C             0.71      1 P:y             2
                        (      -0.665 eV)              -0.71      1 P:y             5
     9       9      2.000      -9.760 au  C             0.71      1 S               3
                        (    -265.587 eV)               0.71      1 S              10
    10      10      2.000      -0.364 au  C             0.71      2 S               3
                        (      -9.897 eV)               0.71      2 S              10
    11      11      0.667      -0.024 au  C             0.71      1 P:x             3
                        (      -0.665 eV)              -0.71      1 P:x            10
    12      12      0.667      -0.024 au  C             0.71      1 P:y             3
                        (      -0.665 eV)              -0.71      1 P:y            10
    13      13      2.000      -9.760 au  C             0.71      1 S               6
                        (    -265.587 eV)               0.71      1 S               8
    14      14      2.000      -0.364 au  C             0.71      2 S               6
                        (      -9.897 eV)               0.71      2 S               8
    15      15      0.667      -0.024 au  C             0.71      1 P:x             6
                        (      -0.665 eV)              -0.71      1 P:x             8
    16      16      0.667      -0.024 au  C             0.71      1 P:y             6
                        (      -0.665 eV)              -0.71      1 P:y             8
    17      17      2.000      -9.760 au  C             0.71      1 S               7
                        (    -265.587 eV)               0.71      1 S               9
    18      18      2.000      -0.364 au  C             0.71      2 S               7
                        (      -9.897 eV)               0.71      2 S               9
    19      19      0.667      -0.024 au  C             0.71      1 P:x             7
                        (      -0.665 eV)              -0.71      1 P:x             9
    20      20      0.667      -0.024 au  C             0.71      1 P:y             7
                        (      -0.665 eV)              -0.71      1 P:y             9
    21      21      1.000      -0.122 au  H             0.71      1 S              11
                        (      -3.310 eV)               0.71      1 S              13
    22      22      1.000      -0.122 au  H             0.71      1 S              12
                        (      -3.310 eV)               0.71      1 S              20
    23      23      1.000      -0.122 au  H             0.71      1 S              14
                        (      -3.310 eV)               0.71      1 S              18
    24      24      1.000      -0.122 au  H             0.71      1 S              15
                        (      -3.310 eV)               0.71      1 S              17
    25      25      1.000      -0.122 au  H             0.71      1 S              16
                        (      -3.310 eV)               0.71      1 S              19



                                       === B.g ===
 Nr. of SFOs :    5
 Cartesian basis functions that participate in this irrep (total number =    10) :
      5    20    10    25    15    50    30    40    35    45

    SFO  (index         Fragment          Generating    Expansion in Fragment Orbitals
  indx  incl.CFs)   Occup   Orb.Energy   FragmentType  Coeff.   Orbital     on Fragment
 --------------------------------------------------------------------------------------
     1       1      0.667      -0.024 au  C             0.71      1 P:z             1
                        (      -0.665 eV)              -0.71      1 P:z             4
     2       2      0.667      -0.024 au  C             0.71      1 P:z             2
                        (      -0.665 eV)              -0.71      1 P:z             5
     3       3      0.667      -0.024 au  C             0.71      1 P:z             3
                        (      -0.665 eV)              -0.71      1 P:z            10
     4       4      0.667      -0.024 au  C             0.71      1 P:z             6
                        (      -0.665 eV)              -0.71      1 P:z             8
     5       5      0.667      -0.024 au  C             0.71      1 P:z             7
                        (      -0.665 eV)              -0.71      1 P:z             9



                                       === A.u ===
 Nr. of SFOs :    5
 Cartesian basis functions that participate in this irrep (total number =    10) :
      5    20    10    25    15    50    30    40    35    45

    SFO  (index         Fragment          Generating    Expansion in Fragment Orbitals
  indx  incl.CFs)   Occup   Orb.Energy   FragmentType  Coeff.   Orbital     on Fragment
 --------------------------------------------------------------------------------------
     1       1      0.667      -0.024 au  C             0.71      1 P:z             1
                        (      -0.665 eV)               0.71      1 P:z             4
     2       2      0.667      -0.024 au  C             0.71      1 P:z             2
                        (      -0.665 eV)               0.71      1 P:z             5
     3       3      0.667      -0.024 au  C             0.71      1 P:z             3
                        (      -0.665 eV)               0.71      1 P:z            10
     4       4      0.667      -0.024 au  C             0.71      1 P:z             6
                        (      -0.665 eV)               0.71      1 P:z             8
     5       5      0.667      -0.024 au  C             0.71      1 P:z             7
                        (      -0.665 eV)               0.71      1 P:z             9



                                       === B.u ===
 Nr. of SFOs :   25
 Cartesian basis functions that participate in this irrep (total number =    50) :
      1    16     2    17     3     4    18    19     6    21
      7    22     8     9    23    24    11    46    12    47
     13    14    48    49    26    36    27    37    28    29
     38    39    31    41    32    42    33    34    43    44
     51    53    52    60    54    58    55    57    56    59

    SFO  (index         Fragment          Generating    Expansion in Fragment Orbitals
  indx  incl.CFs)   Occup   Orb.Energy   FragmentType  Coeff.   Orbital     on Fragment
 --------------------------------------------------------------------------------------
     1       1      2.000      -9.760 au  C             0.71      1 S               1
                        (    -265.587 eV)              -0.71      1 S               4
     2       2      2.000      -0.364 au  C             0.71      2 S               1
                        (      -9.897 eV)              -0.71      2 S               4
     3       3      0.667      -0.024 au  C             0.71      1 P:x             1
                        (      -0.665 eV)               0.71      1 P:x             4
     4       4      0.667      -0.024 au  C             0.71      1 P:y             1
                        (      -0.665 eV)               0.71      1 P:y             4
     5       5      2.000      -9.760 au  C             0.71      1 S               2
                        (    -265.587 eV)              -0.71      1 S               5
     6       6      2.000      -0.364 au  C             0.71      2 S               2
                        (      -9.897 eV)              -0.71      2 S               5
     7       7      0.667      -0.024 au  C             0.71      1 P:x             2
                        (      -0.665 eV)               0.71      1 P:x             5
     8       8      0.667      -0.024 au  C             0.71      1 P:y             2
                        (      -0.665 eV)               0.71      1 P:y             5
     9       9      2.000      -9.760 au  C             0.71      1 S               3
                        (    -265.587 eV)              -0.71      1 S              10
    10      10      2.000      -0.364 au  C             0.71      2 S               3
                        (      -9.897 eV)              -0.71      2 S              10
    11      11      0.667      -0.024 au  C             0.71      1 P:x             3
                        (      -0.665 eV)               0.71      1 P:x            10
    12      12      0.667      -0.024 au  C             0.71      1 P:y             3
                        (      -0.665 eV)               0.71      1 P:y            10
    13      13      2.000      -9.760 au  C             0.71      1 S               6
                        (    -265.587 eV)              -0.71      1 S               8
    14      14      2.000      -0.364 au  C             0.71      2 S               6
                        (      -9.897 eV)              -0.71      2 S               8
    15      15      0.667      -0.024 au  C             0.71      1 P:x             6
                        (      -0.665 eV)               0.71      1 P:x             8
    16      16      0.667      -0.024 au  C             0.71      1 P:y             6
                        (      -0.665 eV)               0.71      1 P:y             8
    17      17      2.000      -9.760 au  C             0.71      1 S               7
                        (    -265.587 eV)              -0.71      1 S               9
    18      18      2.000      -0.364 au  C             0.71      2 S               7
                        (      -9.897 eV)              -0.71      2 S               9
    19      19      0.667      -0.024 au  C             0.71      1 P:x             7
                        (      -0.665 eV)               0.71      1 P:x             9
    20      20      0.667      -0.024 au  C             0.71      1 P:y             7
                        (      -0.665 eV)               0.71      1 P:y             9
    21      21      1.000      -0.122 au  H             0.71      1 S              11
                        (      -3.310 eV)              -0.71      1 S              13
    22      22      1.000      -0.122 au  H             0.71      1 S              12
                        (      -3.310 eV)              -0.71      1 S              20
    23      23      1.000      -0.122 au  H             0.71      1 S              14
                        (      -3.310 eV)              -0.71      1 S              18
    24      24      1.000      -0.122 au  H             0.71      1 S              15
                        (      -3.310 eV)              -0.71      1 S              17
    25      25      1.000      -0.122 au  H             0.71      1 S              16
                        (      -3.310 eV)              -0.71      1 S              19



 ================================
 (Slater-type)  F U N C T I O N S  ***  (Basis and Fit)  ***
 ================================
  

 Atom Type    1  (C)
 ==============

 Valence Basis Sets:   3
 -----------------------
   1 S    5.670000
   2 S    1.720000
   2 P    1.720000

 Charge Fitting Sets (for the computation of the Coulomb Potential):  22
 -----------------------------------------------------------------------
   1 S   11.340000
   2 S   13.540000
   2 S    9.660000
   2 S    6.890000
   2 S    4.920000
   3 S    5.130000
   3 S    3.860000
   3 S    2.900000
   3 S    2.180000
   3 S    1.640000
   2 P    7.390000
   2 P    4.710000
   3 P    4.410000
   3 P    3.020000
   3 P    2.060000
   3 D    3.440000
   3 D    2.690000
   3 D    2.100000
   3 D    1.640000
   4 F    5.400000
   4 F    3.550000
   5 G    4.500000

 Atom Type    2  (H)
 ==============

 Valence Basis Sets:   1
 -----------------------
   1 S    1.240000

 Charge Fitting Sets (for the computation of the Coulomb Potential):  11
 -----------------------------------------------------------------------
   1 S    3.160000
   1 S    2.090000
   1 S    1.380000
   2 S    1.500000
   2 P    4.000000
   2 P    2.650000
   2 P    1.750000
   3 D    4.000000
   3 D    2.500000
   4 F    3.000000
   5 G    4.000000


 BAS: List of all Elementary Cartesian Basis Functions
 =====================================================

 The numbering in the list below (to the right of the function characteristics) is referred
 to in print-outs of MO eigenvectors and Mulliken populations in the BAS representation
 (as contrasted to the SFO representation).

 Notes:
 1. The functions are characterized by a polynomial prefactor (powers of x,y,z and r) and
    an exponential decay factor alpha.
 2. Since the basis sets are specific for an atom TYPE, the individual functions occur on
    all atoms of that type.
 3. The word 'Core' in the left margin signals that it is a Core Function (CF) : not a
    degree of freedom in the valence set, but only used to ensure orthogonalization of
    the other valence basis functions on the frozen Core Orbitals.


 (power of) X  Y  Z  R     Alpha  on Atom
            ==========     =====     ==========

[...]
 <May08-2006> <12:26:57>  Block Length=  34
 <May08-2006> <12:26:57>  >>>> PTCOR
 <May08-2006> <12:26:57>  >>>> PTBAS
 <May08-2006> <12:26:57>  >>>> CYCLE
 <May08-2006> <12:26:58>    1
 <May08-2006> <12:26:58>    2  ErrMat   0.00000000  MaxEl  0.00000000
 <May08-2006> <12:26:58>  SCF converged
 <May08-2006> <12:26:58>    3  ErrMat   0.00000000  MaxEl  0.00000000
 <May08-2006> <12:26:59>   Solutions with partially occupied orbitals may not be
 <May08-2006> <12:26:59>   lowest in energy. You might consider lowering the
 <May08-2006> <12:26:59>   symmetry in the input and explicitly specifying integer
 <May08-2006> <12:26:59>   occupations. In that case always check that you obtain
 <May08-2006> <12:26:59>   an aufbau solution.
 <May08-2006> <12:27:00>  >>>> COREPS
 <May08-2006> <12:27:00>  >>>> POPAN
 <May08-2006> <12:27:00>  >>>> DEBYE
 <May08-2006> <12:27:00>  NORMAL TERMINATION
 <May08-2006> <12:27:01>  END
 <May08-2006> <12:27:03>  ADF 2004.01  RunTime: May08-2006 12:27:03
 <May08-2006> <12:27:03>  Carbon (I)
 <May08-2006> <12:27:04>  RunType   : CREATE
 <May08-2006> <12:27:05>  Net Charge: 0 (Nuclei minus Electrons)
 <May08-2006> <12:27:05>  Symmetry  : ATOM
 <May08-2006> <12:27:07>  >>>> CORORT
 <May08-2006> <12:27:07>  >>>> FITINT
 <May08-2006> <12:27:07>  >>>> CLSMAT
 <May08-2006> <12:27:07>  >>>> ORTHON
 <May08-2006> <12:27:08>  >>>> CRTP12
 <May08-2006> <12:27:08>  >>>> GENPT
 <May08-2006> <12:27:08>  Acc.Num.Int.=  10.000
 <May08-2006> <12:27:08>  Block Length=  48
 <May08-2006> <12:27:08>  >>>> PTCOR
 <May08-2006> <12:27:08>  >>>> PTBAS
 <May08-2006> <12:27:09>  >>>> CYCLE
 <May08-2006> <12:27:09>    1
 <May08-2006> <12:27:09>    2  ErrMat   0.00000000  MaxEl  0.00000000
 <May08-2006> <12:27:09>  SCF converged
 <May08-2006> <12:27:09>    3  ErrMat   0.00000000  MaxEl  0.00000000
 <May08-2006> <12:27:10>   Solutions with partially occupied orbitals may not be
 <May08-2006> <12:27:10>   lowest in energy. You might consider lowering the
 <May08-2006> <12:27:10>   symmetry in the input and explicitly specifying integer
 <May08-2006> <12:27:10>   occupations. In that case always check that you obtain
 <May08-2006> <12:27:10>   an aufbau solution.
 <May08-2006> <12:27:10>  >>>> COREPS
 <May08-2006> <12:27:10>  >>>> POPAN
 <May08-2006> <12:27:11>  >>>> DEBYE
 <May08-2006> <12:27:11>  NORMAL TERMINATION
 <May08-2006> <12:27:12>  END
 <May08-2006> <12:27:14>  ADF 2004.01  RunTime: May08-2006 12:27:14
 <May08-2006> <12:27:14>  1,4-divinyl-benzene, SZ, BLYP
 <May08-2006> <12:27:14>  RunType   : GEOMETRY OPTIMIZATION
 <May08-2006> <12:27:15>  Net Charge: 0 (Nuclei minus Electrons)
 <May08-2006> <12:27:15>  Symmetry  : C(2H)
 <May08-2006> <12:27:15>  >>>> FRAGM
  Coordinates in Geometry Cycle 1
    Atom         X           Y           Z   (Angstrom)
    1.C        -1.190713    0.702861    0.000000
    2.C        -1.190713   -0.688697    0.000000
    3.C         0.009198   -1.388762    0.000000
    4.C         1.190713   -0.702861    0.000000
    5.C         1.190713    0.688697    0.000000
    6.H        -2.139900   -1.234487    0.000000
    7.H         0.003148   -2.484731    0.000000
    8.H         2.139900    1.234487    0.000000
    9.C         2.478918   -1.443324    0.000000
   10.C         3.680667   -0.843947    0.000000
   11.H         3.739591    0.258027    0.000000
   12.H         2.395090   -2.538418    0.000000
   13.H         4.596386   -1.397444    0.000000
   14.C        -2.478918    1.443324    0.000000
   15.H        -2.395090    2.538418    0.000000
   16.C        -3.680667    0.843947    0.000000
   17.H        -3.739591   -0.258027    0.000000
   18.H        -4.596386    1.397444    0.000000
   19.C        -0.009198    1.388762    0.000000
   20.H        -0.003148    2.484731    0.000000
 <May08-2006> <12:27:17>  >>>> CORORT
 <May08-2006> <12:27:17>  >>>> FITINT
 <May08-2006> <12:27:18>  >>>> CLSMAT
 <May08-2006> <12:27:18>  >>>> ORTHON
 <May08-2006> <12:27:18>  >>>> CRTP12
 <May08-2006> <12:27:18>  >>>> GENPT
 <May08-2006> <12:27:18>  Acc.Num.Int.=   4.000
 <May08-2006> <12:27:19>  Block Length= 128
 <May08-2006> <12:27:40>  >>>> PTCOR
 <May08-2006> <12:27:46>  >>>> PTBAS
 <May08-2006> <12:27:47>  >>>> CYCLE
 <May08-2006> <12:27:48>    1
 <May08-2006> <12:27:49>    2  ErrMat   0.12627588  MaxEl -0.03482674
 <May08-2006> <12:27:51>    3  ErrMat   0.07244587  MaxEl  0.01607499
 <May08-2006> <12:27:54>    4  ErrMat   0.05576880  MaxEl -0.02541670
 <May08-2006> <12:27:56>    5  ErrMat   0.02375109  MaxEl  0.00501194
 <May08-2006> <12:27:58>    6  ErrMat   0.00270664  MaxEl  0.00069133
 <May08-2006> <12:27:58>  SCF converged
 <May08-2006> <12:28:00>    7  ErrMat   0.00035755  MaxEl -0.00010370
 <May08-2006> <12:28:01>  >>>> TOTEN
 <May08-2006> <12:28:42>  >>>> POPAN
 <May08-2006> <12:28:42>  >>>> DEBYE
 <May08-2006> <12:28:43>  >>>> AMETS
 <May08-2006> <12:28:43>  >>>> FOCKC
 <May08-2006> <12:28:48>  >>>> ENGRAD
 <May08-2006> <12:28:57>  E-test:  old,new=   0.00000,  -5.14171 hartree
 <May08-2006> <12:28:57>  max gradient:      0.10589645 au/angstrom,radian
 <May08-2006> <12:28:57>  max cart. step:    0.10157318 angstrom
  Coordinates in Geometry Cycle 2
    Atom         X           Y           Z   (Angstrom)
    1.C        -1.236765    0.715058    0.000000
    2.C        -1.213826   -0.708111    0.000000
    3.C         0.005291   -1.413253    0.000000
    4.C         1.236765   -0.715058    0.000000
    5.C         1.213826    0.708111    0.000000
    6.H        -2.162345   -1.263895    0.000000
    7.H        -0.006586   -2.515207    0.000000
    8.H         2.162345    1.263895    0.000000
    9.C         2.538894   -1.465548    0.000000
   10.C         3.755981   -0.872044    0.000000
   11.H         3.841165    0.223198    0.000000
   12.H         2.452225   -2.567879    0.000000
   13.H         4.697499   -1.441258    0.000000
   14.C        -2.538894    1.465548    0.000000
   15.H        -2.452225    2.567879    0.000000
   16.C        -3.755981    0.872044    0.000000
   17.H        -3.841165   -0.223198    0.000000
   18.H        -4.697499    1.441258    0.000000
   19.C        -0.005291    1.413253    0.000000
   20.H         0.006586    2.515207    0.000000
 <May08-2006> <12:28:59>  >>>> CORORT
 <May08-2006> <12:28:59>  >>>> FITINT
 <May08-2006> <12:29:01>  >>>> CLSMAT
 <May08-2006> <12:29:01>  >>>> ORTHON
 <May08-2006> <12:29:01>  >>>> GENPT
 <May08-2006> <12:29:01>  Acc.Num.Int.=   3.477
 <May08-2006> <12:29:02>  Block Length= 128
 <May08-2006> <12:29:04>  >>>> PTCOR
 <May08-2006> <12:29:11>  >>>> PTBAS
 <May08-2006> <12:29:11>  >>>> CYCLE
 <May08-2006> <12:29:13>    1
 <May08-2006> <12:29:14>    2  ErrMat   0.01853202  MaxEl  0.00481386
 <May08-2006> <12:29:16>    3  ErrMat   0.01069705  MaxEl  0.00366402
 <May08-2006> <12:29:18>    4  ErrMat   0.01077655  MaxEl  0.00446593
 <May08-2006> <12:29:19>    5  ErrMat   0.00311017  MaxEl -0.00085034
 <May08-2006> <12:29:20>    6  ErrMat   0.00055883  MaxEl -0.00015452
 <May08-2006> <12:29:21>  SCF converged
 <May08-2006> <12:29:22>    7  ErrMat   0.00011022  MaxEl -0.00002914
 <May08-2006> <12:29:22>  >>>> TOTEN
 <May08-2006> <12:29:46>  >>>> POPAN
 <May08-2006> <12:29:46>  >>>> DEBYE
 <May08-2006> <12:29:47>  >>>> AMETS
 <May08-2006> <12:29:47>  >>>> FOCKC
 <May08-2006> <12:29:51>  >>>> ENGRAD
 <May08-2006> <12:29:58>  E-test:  old,new=  -5.14171,  -5.15951 hartree
 <May08-2006> <12:29:58>  max gradient:      0.03219313 au/angstrom,radian
 <May08-2006> <12:29:58>  max cart. step:    0.07674804 angstrom
  Coordinates in Geometry Cycle 3
    Atom         X           Y           Z   (Angstrom)
    1.C        -1.259089    0.713145    0.000000
    2.C        -1.216865   -0.721071    0.000000
    3.C         0.012585   -1.419295    0.000000
    4.C         1.259089   -0.713145    0.000000
    5.C         1.216865    0.721071    0.000000
    6.H        -2.161330   -1.289547    0.000000
    7.H         0.008100   -2.523312    0.000000
    8.H         2.161330    1.289547    0.000000
    9.C         2.562623   -1.469286    0.000000
   10.C         3.794065   -0.895249    0.000000
   11.H         3.917913    0.200155    0.000000
   12.H         2.468712   -2.571019    0.000000
   13.H         4.720511   -1.487433    0.000000
   14.C        -2.562623    1.469286    0.000000
   15.H        -2.468712    2.571019    0.000000
   16.C        -3.794065    0.895249    0.000000
   17.H        -3.917913   -0.200155    0.000000
   18.H        -4.720511    1.487433    0.000000
   19.C        -0.012585    1.419295    0.000000
   20.H        -0.008100    2.523312    0.000000
 <May08-2006> <12:30:00>  >>>> CORORT
 <May08-2006> <12:30:00>  >>>> FITINT
 <May08-2006> <12:30:01>  >>>> CLSMAT
 <May08-2006> <12:30:02>  >>>> ORTHON
 <May08-2006> <12:30:02>  >>>> GENPT
 <May08-2006> <12:30:02>  Acc.Num.Int.=   4.000
 <May08-2006> <12:30:03>  Block Length= 128
 <May08-2006> <12:30:51>  >>>> PTCOR
 <May08-2006> <12:30:58>  >>>> PTBAS
 <May08-2006> <12:30:59>  >>>> CYCLE
 <May08-2006> <12:31:00>    1
 <May08-2006> <12:31:03>    2  ErrMat   0.01138128  MaxEl  0.00300970
 <May08-2006> <12:31:04>    3  ErrMat   0.00652792  MaxEl  0.00130143
 <May08-2006> <12:31:07>    4  ErrMat   0.00353322  MaxEl  0.00107360
 <May08-2006> <12:31:08>    5  ErrMat   0.00216564  MaxEl -0.00095585
 <May08-2006> <12:31:11>    6  ErrMat   0.00035676  MaxEl  0.00011389
 <May08-2006> <12:31:13>    7  ErrMat   0.00004715  MaxEl  0.00001013
 <May08-2006> <12:31:13>  SCF converged
 <May08-2006> <12:31:15>    8  ErrMat   0.00001790  MaxEl  0.00000404
 <May08-2006> <12:31:16>  >>>> TOTEN
 <May08-2006> <12:31:59>  >>>> POPAN
 <May08-2006> <12:31:59>  >>>> DEBYE
 <May08-2006> <12:32:00>  >>>> AMETS
 <May08-2006> <12:32:00>  >>>> FOCKC
 <May08-2006> <12:32:06>  >>>> ENGRAD
 <May08-2006> <12:32:15>  E-test:  old,new=  -5.15951,  -5.16210 hartree
 <May08-2006> <12:32:15>  max gradient:      0.00874588 au/angstrom,radian
 <May08-2006> <12:32:15>  max cart. step:    0.04486083 angstrom
  Coordinates in Geometry Cycle 4
    Atom         X           Y           Z   (Angstrom)
    1.C        -1.268673    0.705051    0.000000
    2.C        -1.214774   -0.730923    0.000000
    3.C         0.021194   -1.418395    0.000000
    4.C         1.268673   -0.705051    0.000000
    5.C         1.214774    0.730923    0.000000
    6.H        -2.154050   -1.308859    0.000000
    7.H         0.027505   -2.522520    0.000000
    8.H         2.154050    1.308859    0.000000
    9.C         2.568810   -1.464916    0.000000
   10.C         3.810708   -0.911701    0.000000
   11.H         3.962774    0.179396    0.000000
   12.H         2.465506   -2.565934    0.000000
   13.H         4.721986   -1.530036    0.000000
   14.C        -2.568810    1.464916    0.000000
   15.H        -2.465506    2.565934    0.000000
   16.C        -3.810708    0.911701    0.000000
   17.H        -3.962774   -0.179396    0.000000
   18.H        -4.721986    1.530036    0.000000
   19.C        -0.021194    1.418395    0.000000
   20.H        -0.027505    2.522520    0.000000
 <May08-2006> <12:32:16>  >>>> CORORT
 <May08-2006> <12:32:17>  >>>> FITINT
 <May08-2006> <12:32:18>  >>>> CLSMAT
 <May08-2006> <12:32:18>  >>>> ORTHON
 <May08-2006> <12:32:18>  >>>> GENPT
 <May08-2006> <12:32:19>  Acc.Num.Int.=   4.000
 <May08-2006> <12:32:20>  Block Length= 128
 <May08-2006> <12:32:55>  >>>> PTCOR
 <May08-2006> <12:33:01>  >>>> PTBAS
 <May08-2006> <12:33:02>  >>>> CYCLE
 <May08-2006> <12:33:03>    1
 <May08-2006> <12:33:06>    2  ErrMat   0.01108141  MaxEl  0.00293771
 <May08-2006> <12:33:08>    3  ErrMat   0.00575932  MaxEl  0.00135042
 <May08-2006> <12:33:10>    4  ErrMat   0.00475304  MaxEl -0.00202459
 <May08-2006> <12:33:12>    5  ErrMat   0.00266372  MaxEl  0.00096039
 <May08-2006> <12:33:14>    6  ErrMat   0.00014039  MaxEl -0.00003923
 <May08-2006> <12:33:15>  SCF converged
 <May08-2006> <12:33:16>    7  ErrMat   0.00002103  MaxEl -0.00000708
 <May08-2006> <12:33:17>  >>>> TOTEN
 <May08-2006> <12:34:05>  >>>> POPAN
 <May08-2006> <12:34:05>  >>>> DEBYE
 <May08-2006> <12:34:05>  >>>> AMETS
 <May08-2006> <12:34:05>  >>>> FOCKC
 <May08-2006> <12:34:11>  >>>> ENGRAD
 <May08-2006> <12:34:20>  E-test:  old,new=  -5.16210,  -5.16268 hartree
 <May08-2006> <12:34:20>  max gradient:      0.00195293 au/angstrom,radian
 <May08-2006> <12:34:20>  max cart. step:    0.02885388 angstrom
  Coordinates in Geometry Cycle 5
    Atom         X           Y           Z   (Angstrom)
    1.C        -1.273047    0.698170    0.000000
    2.C        -1.212766   -0.737411    0.000000
    3.C         0.027431   -1.416633    0.000000
    4.C         1.273047   -0.698170    0.000000
    5.C         1.212766    0.737411    0.000000
    6.H        -2.148230   -1.321686    0.000000
    7.H         0.042178   -2.520662    0.000000
    8.H         2.148230    1.321686    0.000000
    9.C         2.570363   -1.460410    0.000000
   10.C         3.819064   -0.922379    0.000000
   11.H         3.991627    0.165343    0.000000
   12.H         2.459897   -2.560682    0.000000
   13.H         4.718291   -1.558242    0.000000
   14.C        -2.570363    1.460410    0.000000
   15.H        -2.459897    2.560682    0.000000
   16.C        -3.819064    0.922379    0.000000
   17.H        -3.991627   -0.165343    0.000000
   18.H        -4.718291    1.558242    0.000000
   19.C        -0.027431    1.416633    0.000000
   20.H        -0.042178    2.520662    0.000000
 <May08-2006> <12:34:22>  >>>> CORORT
 <May08-2006> <12:34:22>  >>>> FITINT
 <May08-2006> <12:34:24>  >>>> CLSMAT
 <May08-2006> <12:34:24>  >>>> ORTHON
 <May08-2006> <12:34:24>  >>>> GENPT
 <May08-2006> <12:34:24>  Acc.Num.Int.=   4.000
 <May08-2006> <12:34:25>  Block Length= 128
 <May08-2006> <12:35:06>  >>>> PTCOR
 <May08-2006> <12:35:13>  >>>> PTBAS
 <May08-2006> <12:35:13>  >>>> CYCLE
 <May08-2006> <12:35:15>    1
 <May08-2006> <12:35:17>    2  ErrMat   0.00788570  MaxEl  0.00209584
 <May08-2006> <12:35:19>    3  ErrMat   0.00398912  MaxEl  0.00087033
 <May08-2006> <12:35:22>    4  ErrMat   0.00329468  MaxEl -0.00139999
 <May08-2006> <12:35:24>    5  ErrMat   0.00184414  MaxEl  0.00064587
 <May08-2006> <12:35:26>    6  ErrMat   0.00009396  MaxEl -0.00002653
 <May08-2006> <12:35:26>  SCF converged
 <May08-2006> <12:35:28>    7  ErrMat   0.00001510  MaxEl -0.00000493
 <May08-2006> <12:35:29>  >>>> TOTEN
 <May08-2006> <12:36:18>  >>>> POPAN
 <May08-2006> <12:36:18>  >>>> DEBYE
 <May08-2006> <12:36:18>  >>>> AMETS
 <May08-2006> <12:36:18>  >>>> FOCKC
 <May08-2006> <12:36:24>  >>>> ENGRAD
 <May08-2006> <12:36:33>  E-test:  old,new=  -5.16268,  -5.16288 hartree
 <May08-2006> <12:36:33>  max gradient:      0.00123451 au/angstrom,radian
 <May08-2006> <12:36:33>  max cart. step:    0.01385739 angstrom
  Coordinates in Geometry Cycle 6
    Atom         X           Y           Z   (Angstrom)
    1.C        -1.274776    0.694621    0.000000
    2.C        -1.211578   -0.740535    0.000000
    3.C         0.030728   -1.415676    0.000000
    4.C         1.274776   -0.694621    0.000000
    5.C         1.211578    0.740535    0.000000
    6.H        -2.145039   -1.327966    0.000000
    7.H         0.049758   -2.519559    0.000000
    8.H         2.145039    1.327966    0.000000
    9.C         2.570983   -1.458079    0.000000
   10.C         3.822767   -0.927651    0.000000
   11.H         4.005485    0.157957    0.000000
   12.H         2.456888   -2.557917    0.000000
   13.H         4.715831   -1.571611    0.000000
   14.C        -2.570983    1.458079    0.000000
   15.H        -2.456888    2.557917    0.000000
   16.C        -3.822767    0.927651    0.000000
   17.H        -4.005485   -0.157957    0.000000
   18.H        -4.715831    1.571611    0.000000
   19.C        -0.030728    1.415676    0.000000
   20.H        -0.049758    2.519559    0.000000
 <May08-2006> <12:36:34>  >>>> CORORT
 <May08-2006> <12:36:35>  >>>> FITINT
 <May08-2006> <12:36:36>  >>>> CLSMAT
 <May08-2006> <12:36:36>  >>>> ORTHON
 <May08-2006> <12:36:36>  >>>> GENPT
 <May08-2006> <12:36:36>  Acc.Num.Int.=   4.000
 <May08-2006> <12:36:37>  Block Length= 128
 <May08-2006> <12:37:29>  >>>> PTCOR
 <May08-2006> <12:37:36>  >>>> PTBAS
 <May08-2006> <12:37:36>  >>>> CYCLE
 <May08-2006> <12:37:38>    1
 <May08-2006> <12:37:40>    2  ErrMat   0.00390298  MaxEl  0.00105303
 <May08-2006> <12:37:42>    3  ErrMat   0.00196848  MaxEl  0.00043768
 <May08-2006> <12:37:45>    4  ErrMat   0.00161079  MaxEl -0.00068084
 <May08-2006> <12:37:47>    5  ErrMat   0.00091758  MaxEl  0.00032537
 <May08-2006> <12:37:49>    6  ErrMat   0.00004207  MaxEl -0.00001113
 <May08-2006> <12:37:49>  SCF converged
 <May08-2006> <12:37:51>    7  ErrMat   0.00000611  MaxEl -0.00000167
 <May08-2006> <12:37:52>  >>>> TOTEN
 <May08-2006> <12:38:36>  >>>> POPAN
 <May08-2006> <12:38:37>  >>>> DEBYE
 <May08-2006> <12:38:37>  >>>> AMETS
 <May08-2006> <12:38:38>  >>>> FOCKC
 <May08-2006> <12:38:43>  >>>> ENGRAD
 <May08-2006> <12:38:52>  E-test:  old,new=  -5.16288,  -5.16294 hartree
 <May08-2006> <12:38:52>  max gradient:      0.00072717 au/angstrom,radian
 <May08-2006> <12:38:52>  max cart. step:    0.00673851 angstrom
 <May08-2006> <12:38:52>  Geometry Converged
  Coordinates in Geometry Cycle 7
    Atom         X           Y           Z   (Angstrom)
    1.C        -1.275568    0.692949    0.000000
    2.C        -1.211011   -0.742036    0.000000
    3.C         0.032360   -1.415271    0.000000
    4.C         1.275568   -0.692949    0.000000
    5.C         1.211011    0.742036    0.000000
    6.H        -2.143529   -1.330976    0.000000
    7.H         0.053320   -2.519080    0.000000
    8.H         2.143529    1.330976    0.000000
    9.C         2.571440   -1.457016    0.000000
   10.C         3.824633   -0.930233    0.000000
   11.H         4.012223    0.154429    0.000000
   12.H         2.455501   -2.556634    0.000000
   13.H         4.714807   -1.577980    0.000000
   14.C        -2.571440    1.457016    0.000000
   15.H        -2.455501    2.556634    0.000000
   16.C        -3.824633    0.930233    0.000000
   17.H        -4.012223   -0.154429    0.000000
   18.H        -4.714807    1.577980    0.000000
   19.C        -0.032360    1.415271    0.000000
   20.H        -0.053320    2.519080    0.000000
 <May08-2006> <12:38:54>  >>>> CORORT
 <May08-2006> <12:38:54>  >>>> FITINT
 <May08-2006> <12:38:55>  >>>> CLSMAT
 <May08-2006> <12:38:55>  >>>> ORTHON
 <May08-2006> <12:38:56>  >>>> GENPT
 <May08-2006> <12:38:56>  Acc.Num.Int.=   4.000
 <May08-2006> <12:38:57>  Block Length= 128
 <May08-2006> <12:39:47>  >>>> PTCOR
 <May08-2006> <12:39:55>  >>>> PTBAS
 <May08-2006> <12:39:56>  >>>> CYCLE
 <May08-2006> <12:39:58>    1
 <May08-2006> <12:40:00>    2  ErrMat   0.00186287  MaxEl  0.00049862
 <May08-2006> <12:40:02>    3  ErrMat   0.00093119  MaxEl  0.00020742
 <May08-2006> <12:40:05>    4  ErrMat   0.00076737  MaxEl -0.00032489
 <May08-2006> <12:40:07>    5  ErrMat   0.00042958  MaxEl  0.00014981
 <May08-2006> <12:40:09>    6  ErrMat   0.00002200  MaxEl -0.00000629
 <May08-2006> <12:40:11>    7  ErrMat   0.00000532  MaxEl -0.00000147
 <May08-2006> <12:40:13>    8  ErrMat   0.00000109  MaxEl  0.00000031
 <May08-2006> <12:40:14>  SCF converged
 <May08-2006> <12:40:16>    9  ErrMat   0.00000033  MaxEl -0.00000010
 <May08-2006> <12:40:16>  >>>> COREPS
 <May08-2006> <12:40:18>  >>>> TOTEN
 <May08-2006> <12:40:59>  >>>> POPAN
 <May08-2006> <12:40:59>  >>>> DEBYE
 <May08-2006> <12:41:00>  >>>> AMETS
 <May08-2006> <12:41:00>  >>>> POPUL
 <May08-2006> <12:41:00>   Bond Energy LDA      -5.63065083 a.u.
 <May08-2006> <12:41:00>   Bond Energy LDA    -153.21786728 eV
 <May08-2006> <12:41:00>           + GGA-X      -4.80722245 a.u.
 <May08-2006> <12:41:01>           + GGA-X    -130.81123190 eV
 <May08-2006> <12:41:01>          + GGA-XC      -5.16295049 a.u.
 <May08-2006> <12:41:01>          + GGA-XC    -140.49108828 eV
 <May08-2006> <12:41:01>  NORMAL TERMINATION
 <May08-2006> <12:41:02>  END
