
   OpenMP run-time library returned nthreads =  1

 ccsdf12 (smp-n28.crc.pitt.edu) : TURBOMOLE V7.2 ( 21471 ) 11 Oct 2017 at 17:04:51
 Copyright (C) 2017 TURBOMOLE GmbH, Karlsruhe


    2018-08-03 17:01:11.661 


          ************************************************************
          *                                                          *
          *              C C S D F 1 2   P R O G R A M               *
          *                                                          *
          *               the quantum chemistry groups               *
          *                  at the universities in                  *
          *            Karlsruhe, Bochum, Bristol & Mainz            *
          *                                                          *
          ************************************************************


   *-----------------------------------------------------------------------*
   |                     program will use  1 thread(s)                     |
   *-----------------------------------------------------------------------*


              +--------------------------------------------------+
              | Atomic coordinate, charge and isotop information |
              +--------------------------------------------------+

                    atomic coordinates            atom    charge  isotop
          1.41610067    0.00000000    0.83607701    h      1.000     0
          0.00000000    0.00000000   -0.31246754    o      8.000     0
         -1.41610067    0.00000000    0.83607701    h      1.000     0
 
       center of nuclear mass  :    0.00000000    0.00000000   -0.18394391
       center of nuclear charge:    0.00000000    0.00000000   -0.08275863

              +--------------------------------------------------+
              |               basis set information              |
              +--------------------------------------------------+

              we will work with the 1s 3p 5d 7f 9g ... basis set
              ...i.e. with spherical basis functions...

   type   atoms  prim   cont   basis
   ---------------------------------------------------------------------------
    h        2      3      1   sto-3g hondo   [1s|3s]
    o        1     15      5   sto-3g hondo   [2s1p|6s3p]
   ---------------------------------------------------------------------------
   total:    3     21      7
   ---------------------------------------------------------------------------

   total number of primitive shells          :   12
   total number of contracted shells         :    5
   total number of cartesian basis functions :    7
   total number of SCF-basis functions       :    7


 symmetry group of the molecule :   c1 

 the group has the following generators :
   c1(z)

    1 symmetry operations found

 there are 1 real representations :   a   


   =========================================================================


     restricted closed shell calculation for the wavefunction models:
               MP2        - Second Order Moeller Plesset PT


     global parameters for ricc2 program:

        hard restart (reuse of interm.) :  enabled 
        soft restart (reuse of vectors) :  disabled
        threshold for vector function   :    0.100000E-05
        convergence threshold energy    :    0.100000E-06
        linear dependence threshold     :    0.100000E-13
        global print level              :      1
        maximum number of iterations    :    30
        maximum number DIIS vectors     :    10
        max. dim. of reduced space      :   100
        core memory limit (MB)          :   500


     MP2 energy only: Energy will be calculated directly from T2 amplitudes!

     Scratch Directory : /scratch/slurm-1267202/


   =========================================================================

    der. integral neglect threshold  :  0.10E-07
    integral neglect threshold       :  0.48E-09
    integral storage threshold THIZE :  0.10E-04
    integral storage threshold THIME :         5


  ----------------------------------------------------------------------------
  hard restart modus is stopped because no reference value was found for the
  nuclear repulsion, keyword: $nucrep
  the calculation will proceed...
  ----------------------------------------------------------------------------

                  +------------------------------------------+
                  |     Auxiliary basis set information      |
                  +------------------------------------------+

 keyword $cbas  missing in file <control>

              read basis sets from /ihome/crc/install/turbomole/7.21/TURBOMOLE/cbasen/
              (basis sets have been saved in file auxbasis)

              we will work with the 1s 3p 5d 7f 9g ... basis set
              ...i.e. with spherical basis functions...

   type   atoms  prim   cont   basis
   ---------------------------------------------------------------------------
    h        2     56     56   def2-QZVPP   [6s4p3d2f1g|6s4p3d2f1g]
    o        1    141    141   def2-QZVPP   [9s8p7d5f3g1h|9s8p7d5f3g1h]
   ---------------------------------------------------------------------------
   total:    3    253    253
   ---------------------------------------------------------------------------

   total number of primitive shells          :   49
   total number of contracted shells         :   65
   total number of cartesian basis functions :  333
   total number of SCF-basis functions       :  253


 maximum number of shells which are related by symmetry :  1


 The symmetry information takes   1 MB

*---------------------------------------------------------------------*
|               simplified C1 algorithm will be applied               |
*---------------------------------------------------------------------*
  MOs are in ASCII format !


 reading orbital data $scfmo  from file mos
 orbital characterization : scfconv=7


   Molecular Orbital Statistic:
   ============================

   -----------------------------
   orbitals in total:
   -----------------------------
    frozen occupied :      0
    active occupied :      5
    active virtual  :      2
    frozen virtual  :      0
    all together    :      7
   -----------------------------


     time in riccmos       cpu:  0.00 sec    wall:  0.03 sec    ratio:  0.1

     total memory allocated for calculation of (Q|P)**(-1/2) : 1 MiB


     calculation of (P|Q) ...
     time in lp2sym        cpu:  0.00 sec    wall:  0.00 sec    ratio:  0.9


     calculation of the Cholesky decomposition of (P|Q)**(-1) ...
     time in invmetri      cpu:  0.00 sec    wall:  0.10 sec    ratio:  0.0

   threshold for RMS(d[D]) in SCF was     :  0.10E-06
   integral neglect threshold             :  0.48E-09
   derivative integral neglect threshold  :  0.10E-07


   =========================================================================

     Energy of reference wave function is   -74.9644564256500
     Maximum orbital residual is           0.6872355463114E-06


     Number of symmetry-nonredundant auxiliary basis functions:      253

     Block lengths for integral files:
        frozen occupied (BOI):        0 MiB
        active occupied (BJI):        1 MiB
        active virtual  (BAI):        1 MiB
        frozen virtual  (BGI):********* MiB
               general  (BTI):        1 MiB

   =========================================================================




   **************************************************************************
   *                                                                        *
   *          OPTIMIZATION OF THE GROUND STATE CLUSTER AMPLITUDES           *
   *                                                                        *
   **************************************************************************


   Iter.   MP2 energy       Norm(Omega)    Norm(t1)  Norm(t2)     cpu    wall
   ...........................................................................
    1    -75.0009789619     ------          0.00000   0.06735    0.00    0.00
   ...........................................................................


     time in total         cpu:  0.00 sec    wall:  0.07 sec    ratio:  0.0


     **********************************************************************
     *                                                                    *
     *   RHF  energy                             :    -74.9644564256      *
     *   MP2 correlation energy (doubles)        :     -0.0365225363      *
     *                                                                    *
     *   Final MP2 energy                        :    -75.0009789619      *
     *                                                                    *
     *    E(S)   =     -0.0332843944      E(T)   =     -0.0032381418      *
     *    E(OS)  =     -0.0343637750      E(SS)  =     -0.0021587612      *
     *                                                                    *
     *   SCS-MP2 energy                          :    -75.0064125428      *
     *   (computed with  C(OS) =   1.2000  and  C(SS) =   0.3333)         *
     *                                                                    *
     *   SOS-MP2 energy                          :    -75.0091293332      *
     *   (computed with  C(OS) =   1.3000)                                *
     *                                                                    *
     *   Norm of MP1 T2 amplitudes               :      0.0673494687      *
     *                                                                    *
     **********************************************************************



    ------------------------------------------------------------------------
         total  cpu-time :   0.06 seconds
         total wall-time :   0.98 seconds
    ------------------------------------------------------------------------

   ****  ccsdf12 : all done  ****


    2018-08-03 17:01:12.598 

 ccsdf12 ended normally
