   This run of MOLCAS is using the pymolcas driver

                             OPE
                             OPE          NMOL  CASOP  ENMOLC A   SO
                 OPE        NMOLC        AS  OP EN  MO LC     AS  OP
                OPENM       OL CA        SO  PE NM  OL CA     SOP EN
                OP EN      MO   LC       AS  OP ENMOL  CASO   PENMOL
                OP  EN     MO   LC       AS  OP EN     MO     LC ASO
               OP   E  NMOL  C  AS       OP  EN MO     LC     AS  OP
               OP  E   NMO   LC AS        OPEN  MO     LCASOP EN   M
               O  PEN   MO  LCA  SO
            OPE   NMO   L   CAS    OP
        OPENMOL  CASOP     ENMOL   CASOPE
     OPENMOLCA   SOPENMOLCASOPEN   MOLCASOPE
    OPENMOLCAS   OP           EN   MOL    CAS
    OPENMOLCAS       OP  ENM        O     LCA
    OPENMOLCAS    OPEN  MOLCASO     P  E  NMO
    OPENMOLCAS     OP               E  N  MOL
    OPENMOLCA   SO           PENM   O  L  CAS    OPEN    MO    LCAS
    OPENMOLCA   SOP           ENM   O  L  CAS   OP  EN  MOLC  AS   O
    OPENMOLCA   SOPE           NM      O  LCA   S      OP  EN MO
    OPENMOLC                AS         O  PEN   M      OL  CA  SOPE
    OPENMO        LCASOPE  NMOL        C  ASO   P      ENMOLC     AS
    OPE     NMO      LCA  SO     P     E   NM   OL  CA SO  PE N   MO
          OPENMOLCA            SOPE   NMO        LCAS  O    P  ENMO
     OPENMOLCASOPENMOLCASOPENMOLCASOPENMOLCA
        OPENMOLCASOPENMOLCASOPENMOLCASOPE
            OPENMOLCASOPENMOLCASOPENM
               OPENMOLCASOPENMOLCA        version: 18.09
                   OPENMOLCASO
                       OPE                tag: 52-ge15dc38

 OpenMolcas is free software; you can redistribute it and/or modify it
 under the terms of the GNU Lesser General Public License version 2.1.
 OpenMolcas is distributed in the hope that it will be useful, but it
 is provided "as is" and without any express or implied warranties.
 For more details see the full text of the license in the file
 LICENSE or in <http://www.gnu.org/licenses/>.

                 Copyright (C) The OpenMolcas Authors
           For the author list and the recommended citation,
                   consult the file CONTRIBUTORS.md

           *************************************************
           * pymolcas version py2.04                       *
           *   build 81d3fb3dc6a5c5df6b3791ef1ef3790f      *
           *   (after the EMIL interpreter by V. Veryazov) *
           *************************************************

configuration info
------------------
C Compiler ID: GNU
C flags: -std=gnu99
Fortran Compiler ID: GNU
Fortran flags: -cpp -fno-aggressive-loop-optimizations -fdefault-integer-8
Definitions: _MOLCAS_;_I8_;_LINUX_
Parallel: OFF (GA=OFF)


   --------------------------------------------------
  |
  |           Project: 001
  |    Submitted from: /home/kml/test/stevenv
  |      Scratch area: /tmp/001
  |   Save outputs to: /home/kml/test/stevenv
  |            Molcas: /home/kml/tmp/OpenMolcas/build
  |
  | Scratch area is empty
  |
  |    MOLCAS_DRIVER = /home/kml/bin/pymolcas
  |    MOLCAS_NPROCS = 1
  |    MOLCAS_SOURCE = /home/kml/tmp/OpenMolcas
  | MOLCAS_STRUCTURE = 0
  |
   --------------------------------------------------

++ ---------   Input file   ---------

&GATEWAY
Title
Benzene, STO-3g Basis set
Coord
12

C1 -1.21689 -0.702573 0
C2  1.21689 -0.702573 0
C3 -1.21689  0.702573 0
C4  1.21689  0.702573 0
C5  0.      -1.40514  0
C6  0.       1.40514  0
H1 -2.15418 -1.24371  0
H2  2.15418 -1.24371  0
H3 -2.15418  1.24371  0
H4  2.15418  1.24371  0
H5  0.      -2.48743  0
H6  0.       2.48743  0
Basis = ANO-S-VDZ
NoCD

&SEWARD

&RASSCF
Symmetry = 1
 Spin = 1
Nactel = 6  0  0
Inac =   6    4    5    3    0    0    0    0
Ras2 =   0    0    0    0    2    1    2    1
Iter = 20 100

>>> COPY $Project.RasOrb INPORB

&RASSCF
LumOrb
Symmetry = 1
 Spin = 1
Nactel = 10  2  2
Inac =   5    4    5    2    0    0    0    0
Ras1 =   1    0    0    1    0    0    0    0
Ras2 =   0    0    0    0    2    1    2    1
Ras3 =   0    1    1    0    0    0    0    0
Iter = 20 100

&CASPT2

-- ----------------------------------

--- Start Module: gateway at Sun Oct 14 10:28:08 2018 ---

()()()()()()()()()()()()()()()()()()()()()()()()()()()()()()()()()()()()()()()()()()()()()()()()()()

                                              &GATEWAY

                                   only a single process is used
                       available to each process: 2.0 GB of memory, 1 thread?
()()()()()()()()()()()()()()()()()()()()()()()()()()()()()()()()()()()()()()()()()()()()()()()()()()

      Found SYMMETRY generators: x y z

 Title:
                                   Benzene, STO-3g Basis set                            


++    Symmetry information:
      ---------------------

                    --- Group Generators ---
                    Reflection in the yz-plane  
                    Reflection in the xz-plane  
                    Reflection in the xy-plane  

                    Character Table for D2h

                             E   s(yz) s(xz) C2(z) s(xy) C2(y) C2(x)   i  
                    ag       1     1     1     1     1     1     1     1  
                    b3u      1    -1     1    -1     1    -1     1    -1  x
                    b2u      1     1    -1    -1     1     1    -1    -1  y
                    b1g      1    -1    -1     1     1    -1    -1     1  xy, Rz
                    b1u      1     1     1     1    -1    -1    -1    -1  z
                    b2g      1    -1     1    -1    -1     1    -1     1  xz, Ry
                    b3g      1     1    -1    -1    -1    -1     1     1  yz, Rx
                    au       1    -1    -1     1    -1     1     1    -1  I
--


++    Basis set information:
      ----------------------


      Basis set label: C.ANO-S...3S2P.

      Electronic valence basis set:
      ------------------
      Associated Effective Charge   6.000000 au
      Associated Actual Charge      6.000000 au
      Nuclear Model: Point charge

      Shell  nPrim  nBasis  Cartesian Spherical Contaminant
         s      10       3        X                  
         p       6       2        X                  


      Basis set label: H.ANO-S...2S.

      Electronic valence basis set:
      ------------------
      Associated Effective Charge   1.000000 au
      Associated Actual Charge      1.000000 au
      Nuclear Model: Point charge

      Shell  nPrim  nBasis  Cartesian Spherical Contaminant
         s       7       2        X                  
--


++    Molecular structure info:
      -------------------------

                    ************************************************ 
                    **** Cartesian Coordinates / Bohr, Angstrom **** 
                    ************************************************ 

     Center  Label                x              y              z                     x              y              z
        1      C1              -2.299589      -1.327671       0.000000             -1.216890      -0.702573       0.000000
        2      C1               2.299589      -1.327671       0.000000              1.216890      -0.702573       0.000000
        3      C1              -2.299589       1.327671       0.000000             -1.216890       0.702573       0.000000
        4      C1               2.299589       1.327671       0.000000              1.216890       0.702573       0.000000
        5      C5               0.000000      -2.655330       0.000000              0.000000      -1.405140       0.000000
        6      C5               0.000000       2.655330       0.000000              0.000000       1.405140       0.000000
        7      H1              -4.070810      -2.350271       0.000000             -2.154180      -1.243710       0.000000
        8      H1               4.070810      -2.350271       0.000000              2.154180      -1.243710       0.000000
        9      H1              -4.070810       2.350271       0.000000             -2.154180       1.243710       0.000000
       10      H1               4.070810       2.350271       0.000000              2.154180       1.243710       0.000000
       11      H5               0.000000      -4.700561       0.000000              0.000000      -2.487430       0.000000
       12      H5               0.000000       4.700561       0.000000              0.000000       2.487430       0.000000

                    *************************************** 
                    *    InterNuclear Distances / Bohr    * 
                    *************************************** 

               1 C1            2 C1            3 C1            4 C1            5 C5            6 C5    
    1 C1       0.000000
    2 C1       4.599178        0.000000
    3 C1       2.655341        5.310675        0.000000
    4 C1       5.310675        2.655341        4.599178        0.000000
    5 C5       2.655332        2.655332        4.599174        4.599174        0.000000
    6 C5       4.599174        4.599174        2.655332        2.655332        5.310660        0.000000
    7 H1       2.045223        6.451953        4.082215        7.355898        4.082224        6.451941
    8 H1       6.451953        2.045223        7.355898        4.082215        4.082224        6.451941
    9 H1       4.082215        7.355898        2.045223        6.451953        6.451941        4.082224
   10 H1       7.355898        4.082215        6.451953        2.045223        6.451941        4.082224
   11 H5       4.082218        4.082218        6.451952        6.451952        2.045232        7.355891
   12 H5       6.451952        6.451952        4.082218        4.082218        7.355891        2.045232

               7 H1            8 H1            9 H1           10 H1           11 H5           12 H5    
    7 H1       0.000000
    8 H1       8.141620        0.000000
    9 H1       4.700543        9.401121        0.000000
   10 H1       9.401121        4.700543        8.141620        0.000000
   11 H5       4.700570        4.700570        8.141605        8.141605        0.000000
   12 H5       8.141605        8.141605        4.700570        4.700570        9.401123        0.000000

                    ******************************************* 
                    *    InterNuclear Distances / Angstrom    * 
                    ******************************************* 

               1 C1            2 C1            3 C1            4 C1            5 C5            6 C5    
    1 C1       0.000000
    2 C1       2.433780        0.000000
    3 C1       1.405146        2.810288        0.000000
    4 C1       2.810288        1.405146        2.433780        0.000000
    5 C5       1.405141        1.405141        2.433778        2.433778        0.000000
    6 C5       2.433778        2.433778        1.405141        1.405141        2.810280        0.000000
    7 H1       1.082285        3.414226        2.160215        3.892574        2.160220        3.414220
    8 H1       3.414226        1.082285        3.892574        2.160215        2.160220        3.414220
    9 H1       2.160215        3.892574        1.082285        3.414226        3.414220        2.160220
   10 H1       3.892574        2.160215        3.414226        1.082285        3.414220        2.160220
   11 H5       2.160217        2.160217        3.414226        3.414226        1.082290        3.892570
   12 H5       3.414226        3.414226        2.160217        2.160217        3.892570        1.082290

               7 H1            8 H1            9 H1           10 H1           11 H5           12 H5    
    7 H1       0.000000
    8 H1       4.308360        0.000000
    9 H1       2.487420        4.974859        0.000000
   10 H1       4.974859        2.487420        4.308360        0.000000
   11 H5       2.487435        2.487435        4.308352        4.308352        0.000000
   12 H5       4.308352        4.308352        2.487435        2.487435        4.974860        0.000000

                    ************************************** 
                    *    Valence Bond Angles / Degree    * 
                    ************************************** 
                          Atom centers                 Phi
                      3 C1       1 C1       5 C5       120.00
                      3 C1       1 C1       7 H1       120.00
                      5 C5       1 C1       7 H1       120.00
                      4 C1       2 C1       5 C5       120.00
                      4 C1       2 C1       8 H1       120.00
                      5 C5       2 C1       8 H1       120.00
                      1 C1       3 C1       6 C5       120.00
                      1 C1       3 C1       9 H1       120.00
                      6 C5       3 C1       9 H1       120.00
                      2 C1       4 C1       6 C5       120.00
                      2 C1       4 C1      10 H1       120.00
                      6 C5       4 C1      10 H1       120.00
                      1 C1       5 C5       2 C1       120.00
                      1 C1       5 C5      11 H5       120.00
                      2 C1       5 C5      11 H5       120.00
                      3 C1       6 C5       4 C1       120.00
                      3 C1       6 C5      12 H5       120.00
                      4 C1       6 C5      12 H5       120.00

           ***************************************************************
           *              Valence Dihedral Angles / Degree               *
           ***************************************************************
                    Atom centers                       Phi1     Phi2     Theta 
           5 C5       1 C1       3 C1       6 C5        120.00   120.00    -0.00
           5 C5       1 C1       3 C1       9 H1        120.00   120.00  -180.00
           7 H1       1 C1       3 C1       9 H1        120.00   120.00    -0.00
           3 C1       1 C1       5 C5      11 H5        120.00   120.00  -180.00
           7 H1       1 C1       5 C5      11 H5        120.00   120.00    -0.00
           5 C5       2 C1       4 C1       6 C5        120.00   120.00    -0.00
           5 C5       2 C1       4 C1      10 H1        120.00   120.00  -180.00
           8 H1       2 C1       4 C1      10 H1        120.00   120.00    -0.00
           4 C1       2 C1       5 C5      11 H5        120.00   120.00  -180.00
           8 H1       2 C1       5 C5      11 H5        120.00   120.00     0.00
           6 C5       3 C1       1 C1       7 H1        120.00   120.00  -180.00
           1 C1       3 C1       6 C5       4 C1        120.00   120.00    -0.00
           1 C1       3 C1       6 C5      12 H5        120.00   120.00  -180.00
           9 H1       3 C1       6 C5      12 H5        120.00   120.00    -0.00
           6 C5       4 C1       2 C1       8 H1        120.00   120.00  -180.00
           2 C1       4 C1       6 C5       3 C1        120.00   120.00    -0.00
           2 C1       4 C1       6 C5      12 H5        120.00   120.00  -180.00
          10 H1       4 C1       6 C5      12 H5        120.00   120.00    -0.00
           2 C1       5 C5       1 C1       3 C1        120.00   120.00    -0.00
           2 C1       5 C5       1 C1       7 H1        120.00   120.00  -180.00
           1 C1       5 C5       2 C1       4 C1        120.00   120.00    -0.00
           1 C1       5 C5       2 C1       8 H1        120.00   120.00  -180.00
           4 C1       6 C5       3 C1       9 H1        120.00   120.00  -180.00
           3 C1       6 C5       4 C1      10 H1        120.00   120.00  -180.00
--


            Nuclear Potential Energy            202.27242322 au

--- Stop Module: gateway at Sun Oct 14 10:28:08 2018 /rc=_RC_ALL_IS_WELL_ ---
*** files: xmldump
    saved to directory /home/kml/test/stevenv

--- Start Module: seward at Sun Oct 14 10:28:08 2018 ---

()()()()()()()()()()()()()()()()()()()()()()()()()()()()()()()()()()()()()()()()()()()()()()()()()()

                                              &SEWARD

                                   only a single process is used
                       available to each process: 2.0 GB of memory, 1 thread?
()()()()()()()()()()()()()()()()()()()()()()()()()()()()()()()()()()()()()()()()()()()()()()()()()()

               SEWARD will generate:
                  Multipole Moment integrals up to order  2
                  Kinetic Energy integrals
                  Nuclear Attraction integrals (point charge)
                  One-Electron Hamiltonian integrals
                  Velocity integrals
                  Two-Electron Repulsion integrals

                   Integrals are discarded if absolute value <: 0.10E-13
                   Integral cutoff threshold is set to       <: 0.10E-15

                    Unitary symmetry adaptation


            Nuclear Potential Energy            202.27242322 au


      Basis set specifications :
      Symmetry species         ag   b3u  b2u  b1g  b1u  b2g  b3g  au 
      Basis functions           16   11   16   11    4    2    4    2


  Input file to MOLDEN was generated!

Note: The following floating-point exceptions are signalling: IEEE_INVALID_FLAG IEEE_DIVIDE_BY_ZERO IEEE_UNDERFLOW_FLAG IEEE_DENORMAL
--- Stop Module: seward at Sun Oct 14 10:28:10 2018 /rc=_RC_ALL_IS_WELL_ ---
*** files: 001.GssOrb 001.guessorb.molden xmldump
    saved to directory /home/kml/test/stevenv
--- Module seward spent 1 second ---

*** symbolic link created: INPORB -> 001.GssOrb
--- Start Module: rasscf at Sun Oct 14 10:28:10 2018 ---

()()()()()()()()()()()()()()()()()()()()()()()()()()()()()()()()()()()()()()()()()()()()()()()()()()

                                              &RASSCF

                                   only a single process is used
                       available to each process: 2.0 GB of memory, 1 thread?
()()()()()()()()()()()()()()()()()()()()()()()()()()()()()()()()()()()()()()()()()()()()()()()()()()


      Header of the ONEINT file:
      --------------------------
      Benzene, STO-3g Basis set
      Integrals generated by seward 4.2.0  , Sun Oct 14 10:28:08 2018


      OrdInt status: non-squared


      Cartesian coordinates in Angstrom:
      -----------------------------------------------------
      No.  Label        X            Y            Z        
      -----------------------------------------------------
       1   C1        -1.21689000  -0.70257300   0.00000000
       2   C5         0.00000000  -1.40514000   0.00000000
       3   H1        -2.15418000  -1.24371000   0.00000000
       4   H5         0.00000000  -2.48743000   0.00000000
       5   C1         1.21689000  -0.70257300   0.00000000
       6   C1        -1.21689000   0.70257300   0.00000000
       7   C1         1.21689000   0.70257300   0.00000000
       8   C5         0.00000000   1.40514000   0.00000000
       9   H1         2.15418000  -1.24371000   0.00000000
      10   H1        -2.15418000   1.24371000   0.00000000
      11   H1         2.15418000   1.24371000   0.00000000
      12   H5         0.00000000   2.48743000   0.00000000
      -----------------------------------------------------
      Nuclear repulsion energy =  202.27242322

++    Wave function specifications:
      -----------------------------

      Number of closed shell electrons          36
      Number of electrons in active shells       6
      Max number of holes in RAS1 space          0
      Max nr of electrons in RAS3 space          0
      Number of inactive orbitals               18
      Number of active orbitals                  6
      Number of secondary orbitals              42
      Spin quantum number                      0.0
      State symmetry                             1
--

++    Orbital specifications:
      -----------------------

      Symmetry species                           1   2   3   4   5   6   7   8
                                                ag b3u b2u b1g b1u b2g b3g  au
      Frozen orbitals                            0   0   0   0   0   0   0   0
      Inactive orbitals                          6   4   5   3   0   0   0   0
      Active orbitals                            0   0   0   0   2   1   2   1
      RAS1 orbitals                              0   0   0   0   0   0   0   0
      RAS2 orbitals                              0   0   0   0   2   1   2   1
      RAS3 orbitals                              0   0   0   0   0   0   0   0
      Secondary orbitals                        10   7  11   8   2   1   2   1
      Deleted orbitals                           0   0   0   0   0   0   0   0
      Number of basis functions                 16  11  16  11   4   2   4   2
--

++    CI expansion specifications:
      ----------------------------

      Number of CSFs                            52
      Number of determinants                    62
      Number of root(s) required                 1
      Root chosen for geometry opt.              1
      CI root used                               1
         
      highest root included in the CI            1
      max. size of the explicit Hamiltonian     52
--

++    Optimization specifications:
      ----------------------------

      RASSCF algorithm: Conventional
      Maximum number of macro iterations        20
      Maximum number of SX iterations          100
      Threshold for RASSCF energy            0.100E-07
      Threshold for max MO rotation          0.100E+00
      Threshold for max BLB element          0.100E-03
      Level shift parameter                  0.500E+00
      Make Quasi-Newton update
--

      Orbitals from runfile: guessorb orbitals
      The MO-coefficients are taken from guessorb on runfile

      Total molecular charge    0.00

      ************************************************************************************************************************
      *                                                                                                                      *
      *                                            Wave function control section                                             *
      *                                                                                                                      *
      ************************************************************************************************************************


                                         RASSCF iterations: Energy and convergence statistics
                                         ----------------------------------------------------

      Iter CI   SX   CI       RASSCF       Energy    max ROT     max BLB   max BLB  Level Ln srch  Step   QN   Walltime
          iter iter root      energy       change     param      element    value   shift minimum  type update hh:mm:ss
 Nr of preliminary CI iterations:   1
        1   1   10    1  -230.10856397    0.00E+00  -0.12E+00*   4   8 2  0.32E+00*  0.00   0.00    SX    NO    0:00:00
        2   1   10    1  -230.65755606   -0.55E+00*  0.41E-01    5  12 1 -0.88E-01*  0.00   0.00    SX    NO    0:00:00
        3   1    9    1  -230.70296858   -0.45E-01*  0.13E-01    5  12 1 -0.20E-01*  0.00   0.00    SX    NO    0:00:00
        4   1    8    1  -230.70563566   -0.27E-02*  0.73E-02    4   8 2  0.47E-02*  0.00   0.00    SX    NO    0:00:00
        5   1    8    1  -230.70583835   -0.20E-03*  0.32E-02    1   2 6 -0.15E-02*  0.00   1.45    LS   YES    0:00:00
        6   1    7    1  -230.70586014   -0.22E-04*  0.20E-02    1   3 5 -0.79E-03*  0.00   1.02    QN   YES    0:00:00
        7   1    7    1  -230.70586378   -0.36E-05*  0.97E-03    1   3 5 -0.17E-03*  0.00   1.49    LS   YES    0:00:00
        8   1    6    1  -230.70586422   -0.44E-06* -0.16E-03    1   3 5  0.14E-03*  0.00   1.00    QN   YES    0:00:00
        9   1    5    1  -230.70586426   -0.41E-07*  0.48E-04    4   8 2 -0.32E-04   0.00   1.03    QN   YES    0:00:00
       10   1    5    1  -230.70586426   -0.31E-08  -0.21E-05    3   5 2  0.39E-05   0.00   0.90    QN   YES    0:00:00
      Convergence after 10 iterations
       11   1    5    1  -230.70586426   -0.77E-10  -0.21E-05    5   6 3 -0.46E-06   0.00   0.90    QN   YES    0:00:00

      ************************************************************************************************************************
                                                      Wave function printout:
                       occupation of active orbitals, and spin coupling of open shells (u,d: Spin up or down)
      ************************************************************************************************************************

      Note: transformation to natural orbitals
      has been made, which may change the order of the CSFs.

      printout of CI-coefficients larger than  0.05 for root  1
      energy=    -230.705864
      conf/sym  55 6 77 8     Coeff  Weight
             1  22 2 00 0   0.15490 0.02399
             6  20 2 20 0  -0.93416 0.87265
            11  ud 2 ud 0   0.08764 0.00768
            18  2u d u0 d  -0.18173 0.03302
            22  uu 2 dd 0  -0.08496 0.00722
            28  20 0 20 2   0.15490 0.02399
            43  u0 d 2u d   0.11740 0.01378

      Natural orbitals and occupation numbers for root  1
      sym 5:   1.954710   0.110694
      sym 6:   1.890507
      sym 7:   1.890509   0.042886
      sym 8:   0.110695

      ************************************************************************************************************************
      *                                                                                                                      *
      *                                                    Final results                                                     *
      *                                                                                                                      *
      ************************************************************************************************************************


++    Wave function specifications:
      -----------------------------

      Number of closed shell electrons          36
      Number of electrons in active shells       6
      Max number of holes in RAS1 space          0
      Max nr of electrons in RAS3 space          0
      Number of inactive orbitals               18
      Number of active orbitals                  6
      Number of secondary orbitals              42
      Spin quantum number                      0.0
      State symmetry                             1
--

++    Orbital specifications:
      -----------------------

      Symmetry species                           1   2   3   4   5   6   7   8
                                                ag b3u b2u b1g b1u b2g b3g  au
      Frozen orbitals                            0   0   0   0   0   0   0   0
      Inactive orbitals                          6   4   5   3   0   0   0   0
      Active orbitals                            0   0   0   0   2   1   2   1
      RAS1 orbitals                              0   0   0   0   0   0   0   0
      RAS2 orbitals                              0   0   0   0   2   1   2   1
      RAS3 orbitals                              0   0   0   0   0   0   0   0
      Secondary orbitals                        10   7  11   8   2   1   2   1
      Deleted orbitals                           0   0   0   0   0   0   0   0
      Number of basis functions                 16  11  16  11   4   2   4   2
--

++    CI expansion specifications:
      ----------------------------

      Number of CSFs                            52
      Number of determinants                    62
      Number of root(s) required                 1
      CI root used                               1
      highest root included in the CI            1
      Root passed to geometry opt.               1
--

++    Final optimization conditions:
      ------------------------------

      Average CI energy                            -230.70586426
      RASSCF energy for state  1                   -230.70586426
      Super-CI energy                                -0.00000000
      RASSCF energy change                           -0.00000000
      Max change in MO coefficients               0.623E-05
      Max non-diagonal density matrix element    -0.212E-05
      Maximum BLB matrix element                 -0.464E-06
      (orbital pair   5,   6 in symmetry   3)
      Norm of electronic gradient            0.169E-05
--


      Final state energy(ies):
      ------------------------

::    RASSCF root number  1 Total energy:   -230.70586426

++    Molecular orbitals:
      -------------------

      Pseudonatural active orbitals and approximate occupation numbers




      Molecular orbitals for symmetry species 1: ag 


      Orbital                1         2         3         4         5         6         7
      Energy          -11.2418  -11.2402   -1.1539   -0.8261   -0.7139   -0.4939    0.1332
      Occ. No.          2.0000    2.0000    2.0000    2.0000    2.0000    2.0000    0.0000

    1 C1     1s         0.8162   -0.5770   -0.0593    0.0221    0.0008   -0.0047   -0.1385
    2 C1     2s         0.0012    0.0017    0.5386   -0.3421    0.0753   -0.0079   -1.0325
    3 C1     3s        -0.0018    0.0025   -0.0580    0.0242   -0.0102   -0.0122   -0.3755
    4 C1     2px        0.0006    0.0012    0.1093    0.3222   -0.3931   -0.0004    0.4482
    5 C1     3px        0.0004    0.0009   -0.0442   -0.0247    0.1077    0.0391    0.1813
    6 C1     2py        0.0003   -0.0007    0.0631   -0.2350   -0.2270    0.6738    0.2588
    7 C1     3py        0.0002   -0.0001   -0.0255    0.1811    0.0622   -0.0935    0.1046
    8 C5     1s         0.5772    0.8159   -0.0419   -0.0313    0.0006    0.0066   -0.0980
    9 C5     2s         0.0008   -0.0024    0.3809    0.4838    0.0532    0.0112   -0.7301
   10 C5     3s        -0.0013   -0.0035   -0.0410   -0.0342   -0.0072    0.0172   -0.2655
   11 C5     2py        0.0005   -0.0010    0.0893   -0.2285   -0.3210   -0.4759    0.3660
   12 C5     3py        0.0003   -0.0010   -0.0361   -0.0978    0.0879    0.0182    0.1480
   13 H1     1s         0.0014   -0.0002    0.0897   -0.0857    0.3421   -0.2553    1.0391
   14 H1     2s         0.0007    0.0003   -0.0202    0.0849   -0.0394    0.0514    0.7593
   15 H5     1s         0.0010    0.0003    0.0634    0.1211    0.2419    0.3610    0.7347
   16 H5     2s         0.0005   -0.0004   -0.0143   -0.1201   -0.0279   -0.0727    0.5369



      Molecular orbitals for symmetry species 2: b3u


      Orbital                1         2         3         4
      Energy          -11.2413   -1.0174   -0.6197   -0.5922
      Occ. No.          2.0000    2.0000    2.0000    2.0000

    1 C1     1s         0.9995   -0.0595   -0.0000   -0.0042
    2 C1     2s        -0.0006    0.7020   -0.0000   -0.1764
    3 C1     3s        -0.0035   -0.0676   -0.0000   -0.0205
    4 C1     2px       -0.0008   -0.0502   -0.3214   -0.5288
    5 C1     3px       -0.0009   -0.0478    0.0874    0.0900
    6 C1     2py        0.0012    0.1122    0.5566   -0.3807
    7 C1     3py        0.0009   -0.0817   -0.1513    0.1189
    8 C5     2px       -0.0020   -0.1729    0.4544    0.0923
    9 C5     3px       -0.0017    0.0663   -0.1236   -0.0819
   10 H1     1s        -0.0001    0.1262    0.0000    0.4433
   11 H1     2s        -0.0008   -0.0728   -0.0000   -0.0761



      Molecular orbitals for symmetry species 3: b2u


      Orbital                1         2         3         4         5
      Energy          -11.2413  -11.2396   -1.0174   -0.6465   -0.5922
      Occ. No.          2.0000    2.0000    2.0000    2.0000    2.0000

    1 C1     1s         0.5770   -0.8156   -0.0344   -0.0054    0.0024
    2 C1     2s        -0.0004    0.0053    0.4053    0.5034    0.1019
    3 C1     3s        -0.0020    0.0048   -0.0390    0.0254    0.0119
    4 C1     2px        0.0012    0.0013    0.1122   -0.3588    0.3807
    5 C1     3px        0.0009    0.0012   -0.0817   -0.0049   -0.1189
    6 C1     2py       -0.0022    0.0008   -0.1797   -0.2071    0.0892
    7 C1     3py       -0.0019    0.0007    0.0466   -0.0029    0.0473
    8 C5     1s         0.8161    0.5767   -0.0486    0.0038    0.0034
    9 C5     2s        -0.0005   -0.0038    0.5732   -0.3559    0.1440
   10 C5     3s        -0.0028   -0.0034   -0.0552   -0.0180    0.0168
   11 C5     2py       -0.0000   -0.0011    0.0103    0.2929    0.5293
   12 C5     3py       -0.0003   -0.0010   -0.0671    0.0040   -0.1122
   13 H1     1s        -0.0000   -0.0009    0.0729    0.3232   -0.2559
   14 H1     2s        -0.0005    0.0000   -0.0420   -0.1491    0.0439
   15 H5     1s        -0.0000    0.0006    0.1031   -0.2285   -0.3620
   16 H5     2s        -0.0006   -0.0000   -0.0594    0.1054    0.0621



      Molecular orbitals for symmetry species 4: b1g


      Orbital                1         2         3
      Energy          -11.2402   -0.8261   -0.4939
      Occ. No.          2.0000    2.0000    2.0000

    1 C1     1s         0.9993    0.0383    0.0081
    2 C1     2s        -0.0029   -0.5926    0.0138
    3 C1     3s        -0.0042    0.0419    0.0211
    4 C1     2px       -0.0007    0.1371   -0.6733
    5 C1     3px       -0.0009    0.1526    0.0483
    6 C1     2py       -0.0012    0.3222    0.0004
    7 C1     3py       -0.0009   -0.0247   -0.0391
    8 C5     2px       -0.0010    0.2977    0.4766
    9 C5     3px       -0.0004   -0.1381   -0.0821
   10 H1     1s         0.0003   -0.1484    0.4421
   11 H1     2s        -0.0005    0.1471   -0.0890



      Molecular orbitals for symmetry species 5: b1u


      Orbital                1         2
      Energy            0.0000    0.0000
      Occ. No.          1.9547    0.1107

    1 C1     2pz        0.6201   -0.7524
    2 C1     3pz       -0.0722   -0.0326
    3 C5     2pz        0.4385    1.0641
    4 C5     3pz       -0.0511    0.0462



      Molecular orbitals for symmetry species 6: b2g


      Orbital                1
      Energy            0.0000
      Occ. No.          1.8905

    1 C1     2pz        0.9237
    2 C1     3pz        0.0028



      Molecular orbitals for symmetry species 7: b3g


      Orbital                1         2
      Energy            0.0000    0.0000
      Occ. No.          1.8905    0.0429

    1 C1     2pz        0.5333   -1.2695
    2 C1     3pz        0.0016   -0.0738
    3 C5     2pz        0.7542    0.8977
    4 C5     3pz        0.0023    0.0522



      Molecular orbitals for symmetry species 8: au 


      Orbital                1
      Energy            0.0000
      Occ. No.          0.1107

    1 C1     2pz        1.3033
    2 C1     3pz        0.0565
--

      Von Neumann Entropy (Root  1) =  0.76691


      Mulliken population analysis for root number:  1
      -----------------------------------------------


++    Molecular charges:
      ------------------

      Mulliken charges per centre and basis function type
      ---------------------------------------------------

                C1      C5      H1      H5    
      1s       1.9989  1.9989  0.7321  0.7321
      2s       1.1827  1.1827  0.0424  0.0424
      2px      1.0262  0.8513  0.0000  0.0000
      2pz      1.0189  1.0189  0.0000  0.0000
      2py      0.9096  1.0845  0.0000  0.0000
      3s      -0.0126 -0.0126  0.0000  0.0000
      3px      0.0555  0.0700  0.0000  0.0000
      3pz     -0.0189 -0.0189  0.0000  0.0000
      3py      0.0652  0.0506  0.0000  0.0000
      Total    6.2255  6.2255  0.7745  0.7745

      N-E     -0.2255 -0.2255  0.2255  0.2255

      Total electronic charge=   42.000000

      Total            charge=   -0.000000
--



      Expectation values of various properties for root number:  1
      -----------------------------------------------------------


++    Molecular properties:
      ---------------------

      Charge (e):
                      =   -0.0000
      Dipole Moment (Debye):
      Origin of the operator (Ang)=    0.0000    0.0000    0.0000
                   X=  0.0000E+00               Y=  0.0000E+00               Z=  0.0000E+00           Total=  0.0000E+00
      Quadrupole Moment (Debye*Ang):
      Origin of the operator (Ang)=    0.0000    0.0000    0.0000
                  XX= -3.3556E+01              XY=  0.0000E+00              XZ=  0.0000E+00              YY= -3.3556E+01
                  YZ=  0.0000E+00              ZZ= -4.1725E+01
      In traceless form (Debye*Ang)
                  XX=  4.0849E+00              XY=  0.0000E+00              XZ=  0.0000E+00              YY=  4.0846E+00
                  YZ=  0.0000E+00              ZZ= -8.1694E+00
--


      LoProp population analysis for root number:  1
      -----------------------------------------------


++    LoProp analysis:
      ----------------



++    Static properties:
      ------------------


      LoProp Charges per center


                   C1       C5       H1       H5    
      Nuclear      6.0000   6.0000   1.0000   1.0000
      Electronic  -6.1282  -6.1282  -0.8718  -0.8718

      Total       -0.1282  -0.1282   0.1282   0.1282
--


      Natural Bond Order analysis for root number:  1

++    Natural Bond Order analysis
      ---------------------------
      Based on LoProp computed density
      -------------------------------------------------------------------------------------
      Atom A:Gen.  Atom B:Gen.  Bond Order | Atom A:Gen.  Atom B:Gen.  Bond Order
        C1    :E     C1    :y       1.818  |   C1    :y     C5    :y       0.998
        C1    :E     C5    :E       1.818  |   C1    :y     H1    :y       0.999
        C1    :E     H1    :E       0.999  |   C1    :xy    C5    :y       0.998
        C1    :x     C1    :xy      1.818  |   C1    :xy    H1    :xy      0.999
        C1    :x     C5    :E       1.818  |   C5    :E     H5    :E       0.999
        C1    :x     H1    :x       0.999  |   C5    :y     H5    :y       0.999
      -------------------------------------------------------------------------------------
      NBO located     11.998 core electrons.
      NBO located     30.530 electrons involved in   12 bonds.
      NBO analysis, and just that ONLY, did not converge to a
      proper answer, sorry. Calculation will continue as normal.
--

--


  Input file to MOLDEN was generated!

      Average orbitals are written to the RASORB file
      Natural orbitals for root   1 are written to the RASORB.1 file
      Spin density orbitals for root   1 are written to the SPDORB.1 file

Note: The following floating-point exceptions are signalling: IEEE_INVALID_FLAG IEEE_DIVIDE_BY_ZERO IEEE_UNDERFLOW_FLAG IEEE_DENORMAL
--- Stop Module: rasscf at Sun Oct 14 10:28:10 2018 /rc=_RC_ALL_IS_WELL_ ---
*** files: 001.LprOrb 001.rasscf.molden 001.RasOrb 001.RasOrb.1 001.SpdOrb.1 xmldump
    saved to directory /home/kml/test/stevenv

>>> COPY 001.RasOrb INPORB

--- Start Module: rasscf at Sun Oct 14 10:28:10 2018 ---

()()()()()()()()()()()()()()()()()()()()()()()()()()()()()()()()()()()()()()()()()()()()()()()()()()

                                              &RASSCF

                                   only a single process is used
                       available to each process: 2.0 GB of memory, 1 thread?
()()()()()()()()()()()()()()()()()()()()()()()()()()()()()()()()()()()()()()()()()()()()()()()()()()


      Header of the ONEINT file:
      --------------------------
      Benzene, STO-3g Basis set
      Integrals generated by seward 4.2.0  , Sun Oct 14 10:28:08 2018


      OrdInt status: non-squared


      Cartesian coordinates in Angstrom:
      -----------------------------------------------------
      No.  Label        X            Y            Z        
      -----------------------------------------------------
       1   C1        -1.21689000  -0.70257300   0.00000000
       2   C5         0.00000000  -1.40514000   0.00000000
       3   H1        -2.15418000  -1.24371000   0.00000000
       4   H5         0.00000000  -2.48743000   0.00000000
       5   C1         1.21689000  -0.70257300   0.00000000
       6   C1        -1.21689000   0.70257300   0.00000000
       7   C1         1.21689000   0.70257300   0.00000000
       8   C5         0.00000000   1.40514000   0.00000000
       9   H1         2.15418000  -1.24371000   0.00000000
      10   H1        -2.15418000   1.24371000   0.00000000
      11   H1         2.15418000   1.24371000   0.00000000
      12   H5         0.00000000   2.48743000   0.00000000
      -----------------------------------------------------
      Nuclear repulsion energy =  202.27242322

++    Wave function specifications:
      -----------------------------

      Number of closed shell electrons          32
      Number of electrons in active shells      10
      Max number of holes in RAS1 space          2
      Max nr of electrons in RAS3 space          2
      Number of inactive orbitals               16
      Number of active orbitals                 10
      Number of secondary orbitals              40
      Spin quantum number                      0.0
      State symmetry                             1
--

++    Orbital specifications:
      -----------------------

      Symmetry species                           1   2   3   4   5   6   7   8
                                                ag b3u b2u b1g b1u b2g b3g  au
      Frozen orbitals                            0   0   0   0   0   0   0   0
      Inactive orbitals                          5   4   5   2   0   0   0   0
      Active orbitals                            1   1   1   1   2   1   2   1
      RAS1 orbitals                              1   0   0   1   0   0   0   0
      RAS2 orbitals                              0   0   0   0   2   1   2   1
      RAS3 orbitals                              0   1   1   0   0   0   0   0
      Secondary orbitals                        10   6  10   8   2   1   2   1
      Deleted orbitals                           0   0   0   0   0   0   0   0
      Number of basis functions                 16  11  16  11   4   2   4   2
--

++    CI expansion specifications:
      ----------------------------

      Number of CSFs                          1452
      Number of determinants                  2410
      Number of root(s) required                 1
      Root chosen for geometry opt.              1
      CI root used                               1
         
      highest root included in the CI            1
      max. size of the explicit Hamiltonian    200
--

++    Optimization specifications:
      ----------------------------

      RASSCF algorithm: Conventional
      Maximum number of macro iterations        20
      Maximum number of SX iterations          100
      Threshold for RASSCF energy            0.100E-07
      Threshold for max MO rotation          0.100E+00
      Threshold for max BLB element          0.100E-03
      Level shift parameter                  0.500E+00
      Make Quasi-Newton update
--

      The MO-coefficients are taken from the file:
      INPORB                                                                                                                          
      Title: RASSCF average (pseudo-natural) orbitals                                      

      Total molecular charge    0.00

      ************************************************************************************************************************
      *                                                                                                                      *
      *                                            Wave function control section                                             *
      *                                                                                                                      *
      ************************************************************************************************************************


                                         RASSCF iterations: Energy and convergence statistics
                                         ----------------------------------------------------

      Iter CI   SX   CI       RASSCF       Energy    max ROT     max BLB   max BLB  Level Ln srch  Step   QN   Walltime
          iter iter root      energy       change     param      element    value   shift minimum  type update hh:mm:ss
 Nr of preliminary CI iterations:   4
        1   1    6    1  -230.70697886    0.00E+00   0.45E+00*   5   6 3 -0.25E-02*  0.00   0.00    SX    NO    0:00:01
        2   3    8    1  -230.70996244   -0.30E-02*  0.25E+00*   5   6 3 -0.27E-02*  0.00   0.00    SX    NO    0:00:00
        3   3    7    1  -230.71096558   -0.10E-02* -0.16E+00*   3   6 4 -0.20E-02*  0.00   0.00    SX    NO    0:00:00
        4   4    8    1  -230.71243269   -0.15E-02*  0.31E+00*   6  12 1 -0.20E-02*  0.00   0.00    SX    NO    0:00:00
        5   4    8    1  -230.71757922   -0.51E-02*  0.17E+00*   3   6 3 -0.33E-02*  0.00   2.50    LS   YES    0:00:00
        6   4    8    1  -230.72102789   -0.34E-02*  0.24E+00*   3   6 3 -0.39E-02*  0.00   2.50    QN   YES    0:00:00
        7   4    8    1  -230.72494812   -0.39E-02*  0.79E-01    3   8 4 -0.26E-02*  0.00   1.47    LS   YES    0:00:00
        8   3    8    1  -230.72547018   -0.52E-03*  0.39E-01    3   8 4 -0.19E-02*  0.00   1.58    LS   YES    0:00:00
        9   3    8    1  -230.72555316   -0.83E-04*  0.19E-01    4  12 1  0.19E-02*  0.00   1.20    QN   YES    0:00:00
       10   3    7    1  -230.72560942   -0.56E-04*  0.18E-01    3   8 4 -0.97E-03*  0.00   2.02    LS   YES    0:00:00
       11   3    7    1  -230.72562869   -0.19E-04* -0.65E-02    3   6 4 -0.44E-03*  0.00   1.08    QN   YES    0:00:00
       12   3    7    1  -230.72563485   -0.62E-05* -0.24E-02    6  12 1 -0.24E-03*  0.00   1.28    QN   YES    0:00:00
       13   3    5    1  -230.72563550   -0.64E-06* -0.46E-03    1   3 7  0.58E-04   0.00   1.01    QN   YES    0:00:00
       14   1    5    1  -230.72563552   -0.28E-07* -0.12E-03    6  10 1  0.17E-04   0.00   1.01    QN   YES    0:00:00
       15   2    4    1  -230.72563553   -0.30E-08  -0.19E-03    3  10 3  0.22E-05   0.00   1.18    QN   YES    0:00:00
      Convergence after 15 iterations
       16   2    4    1  -230.72563553   -0.15E-08  -0.19E-03    3   5 4 -0.61E-05   0.00   1.18    QN   YES    0:00:02

      ************************************************************************************************************************
                                                      Wave function printout:
                       occupation of active orbitals, and spin coupling of open shells (u,d: Spin up or down)
      ************************************************************************************************************************

      Note: transformation to natural orbitals
      has been made, which may change the order of the CSFs.

      printout of CI-coefficients larger than  0.05 for root  1
      energy=    -230.725636
      conf/sym  1 4 55 6 77 8 2 3     Coeff  Weight
             1  2 2 22 2 00 0 0 0  -0.14397 0.02073
             8  2 2 20 2 20 0 0 0   0.93505 0.87431
            15  2 2 ud 2 ud 0 0 0  -0.08652 0.00749
            38  2 2 2u d u0 d 0 0   0.17138 0.02937
            53  2 2 uu 2 dd 0 0 0   0.07939 0.00630
            65  2 u 2u 2 d0 0 d 0  -0.05020 0.00252
           230  2 2 20 0 20 2 0 0  -0.14401 0.02074
           373  2 2 u0 d 2u d 0 0  -0.11202 0.01255

      Natural orbitals and occupation numbers for root  1
      sym 1:   1.992810
      sym 2:   0.007010
      sym 3:   0.007005
      sym 4:   1.992795
      sym 5:   1.956250   0.102898
      sym 6:   1.898435
      sym 7:   1.898449   0.041438
      sym 8:   0.102911

      ************************************************************************************************************************
      *                                                                                                                      *
      *                                                    Final results                                                     *
      *                                                                                                                      *
      ************************************************************************************************************************


++    Wave function specifications:
      -----------------------------

      Number of closed shell electrons          32
      Number of electrons in active shells      10
      Max number of holes in RAS1 space          2
      Max nr of electrons in RAS3 space          2
      Number of inactive orbitals               16
      Number of active orbitals                 10
      Number of secondary orbitals              40
      Spin quantum number                      0.0
      State symmetry                             1
--

++    Orbital specifications:
      -----------------------

      Symmetry species                           1   2   3   4   5   6   7   8
                                                ag b3u b2u b1g b1u b2g b3g  au
      Frozen orbitals                            0   0   0   0   0   0   0   0
      Inactive orbitals                          5   4   5   2   0   0   0   0
      Active orbitals                            1   1   1   1   2   1   2   1
      RAS1 orbitals                              1   0   0   1   0   0   0   0
      RAS2 orbitals                              0   0   0   0   2   1   2   1
      RAS3 orbitals                              0   1   1   0   0   0   0   0
      Secondary orbitals                        10   6  10   8   2   1   2   1
      Deleted orbitals                           0   0   0   0   0   0   0   0
      Number of basis functions                 16  11  16  11   4   2   4   2
--

++    CI expansion specifications:
      ----------------------------

      Number of CSFs                          1452
      Number of determinants                  2410
      Number of root(s) required                 1
      CI root used                               1
      highest root included in the CI            1
      Root passed to geometry opt.               1
--

++    Final optimization conditions:
      ------------------------------

      Average CI energy                            -230.72563553
      RASSCF energy for state  1                   -230.72563553
      Super-CI energy                                -0.00000000
      RASSCF energy change                            0.00000000
      Max change in MO coefficients              -0.573E-03
      Max non-diagonal density matrix element    -0.194E-03
      Maximum BLB matrix element                 -0.614E-05
      (orbital pair   3,   5 in symmetry   4)
      Norm of electronic gradient            0.201E-04
--


      Final state energy(ies):
      ------------------------

::    RASSCF root number  1 Total energy:   -230.72563553

++    Molecular orbitals:
      -------------------

      Pseudonatural active orbitals and approximate occupation numbers




      Molecular orbitals for symmetry species 1: ag 


      Orbital                1         2         3         4         5         6         7
      Energy          -11.2403  -11.2387   -1.1531   -0.7180   -0.7132    0.0000    0.1334
      Occ. No.          2.0000    2.0000    2.0000    2.0000    2.0000    1.9928    0.0000

    1 C1     1s         0.8162   -0.5769   -0.0593    0.0154    0.0005   -0.0175   -0.1385
    2 C1     2s         0.0012    0.0016    0.5387   -0.2854    0.0807    0.1801   -1.0326
    3 C1     3s        -0.0018    0.0025   -0.0579    0.0124   -0.0103   -0.0253   -0.3759
    4 C1     2px        0.0006    0.0013    0.1091    0.2564   -0.3980   -0.1906    0.4482
    5 C1     3px        0.0004    0.0009   -0.0441    0.0039    0.1074    0.0451    0.1813
    6 C1     2py        0.0003   -0.0010    0.0639    0.1855   -0.2310    0.6868    0.2588
    7 C1     3py        0.0002   -0.0000   -0.0257    0.0967    0.0603   -0.1855    0.1047
    8 C5     1s         0.5771    0.8160   -0.0419   -0.0218    0.0010    0.0249   -0.0980
    9 C5     2s         0.0008   -0.0023    0.3803    0.4071    0.0456   -0.2559   -0.7301
   10 C5     3s        -0.0013   -0.0035   -0.0408   -0.0180   -0.0068    0.0360   -0.2658
   11 C5     2py        0.0005   -0.0008    0.0892   -0.4636   -0.3119   -0.2530    0.3660
   12 C5     3py        0.0003   -0.0011   -0.0359   -0.0682    0.0890    0.0762    0.1481
   13 H1     1s         0.0014   -0.0001    0.0897   -0.2090    0.3464   -0.1624    1.0390
   14 H1     2s         0.0007    0.0003   -0.0203    0.0982   -0.0413   -0.0072    0.7597
   15 H5     1s         0.0010    0.0002    0.0637    0.3096    0.2360    0.2298    0.7347
   16 H5     2s         0.0005   -0.0004   -0.0143   -0.1406   -0.0252    0.0102    0.5372



      Molecular orbitals for symmetry species 2: b3u


      Orbital                1         2         3         4         5
      Energy          -11.2398   -1.0163   -0.6189   -0.5913    0.0000
      Occ. No.          2.0000    2.0000    2.0000    2.0000    0.0070

    1 C1     1s         0.9995   -0.0594    0.0000   -0.0042    0.1041
    2 C1     2s        -0.0006    0.7032   -0.0000   -0.1778    0.8918
    3 C1     3s        -0.0035   -0.0670   -0.0000   -0.0207    0.1766
    4 C1     2px       -0.0008   -0.0475   -0.3214   -0.5315    1.0235
    5 C1     3px       -0.0009   -0.0462    0.0873    0.0882    0.2297
    6 C1     2py        0.0012    0.1118    0.5566   -0.3809   -0.4043
    7 C1     3py        0.0008   -0.0804   -0.1512    0.1173    0.3718
    8 C5     2px       -0.0020   -0.1705    0.4545    0.0906    1.2191
    9 C5     3px       -0.0017    0.0658   -0.1235   -0.0813   -0.2925
   10 H1     1s        -0.0001    0.1287    0.0000    0.4412    0.3337
   11 H1     2s        -0.0008   -0.0716   -0.0000   -0.0773    0.1855



      Molecular orbitals for symmetry species 3: b2u


      Orbital                1         2         3         4         5         6
      Energy          -11.2398  -11.2381   -1.0163   -0.6459   -0.5913    0.0000
      Occ. No.          2.0000    2.0000    2.0000    2.0000    2.0000    0.0070

    1 C1     1s         0.5771   -0.8155   -0.0343   -0.0054    0.0024    0.0597
    2 C1     2s        -0.0004    0.0053    0.4060    0.5037    0.1027    0.5118
    3 C1     3s        -0.0020    0.0048   -0.0387    0.0257    0.0120    0.1023
    4 C1     2px        0.0012    0.0013    0.1118   -0.3584    0.3809   -0.4053
    5 C1     3px        0.0008    0.0012   -0.0804   -0.0049   -0.1173    0.3724
    6 C1     2py       -0.0022    0.0008   -0.1766   -0.2069    0.0917    1.4899
    7 C1     3py       -0.0019    0.0007    0.0466   -0.0028    0.0473   -0.1989
    8 C5     1s         0.8160    0.5767   -0.0485    0.0038    0.0034    0.0852
    9 C5     2s        -0.0005   -0.0038    0.5741   -0.3562    0.1452    0.7304
   10 C5     3s        -0.0028   -0.0034   -0.0547   -0.0181    0.0169    0.1443
   11 C5     2py       -0.0000   -0.0011    0.0121    0.2926    0.5313    0.5599
   12 C5     3py       -0.0003   -0.0010   -0.0655    0.0040   -0.1102    0.3141
   13 H1     1s        -0.0000   -0.0009    0.0743    0.3236   -0.2547    0.1935
   14 H1     2s        -0.0005    0.0000   -0.0414   -0.1489    0.0446    0.1073
   15 H5     1s        -0.0001    0.0006    0.1051   -0.2288   -0.3603    0.2721
   16 H5     2s        -0.0007   -0.0000   -0.0585    0.1053    0.0631    0.1515



      Molecular orbitals for symmetry species 4: b1g


      Orbital                1         2         3
      Energy          -11.2387   -0.7180    0.0000
      Occ. No.          2.0000    2.0000    1.9928

    1 C1     1s         0.9993    0.0267    0.0305
    2 C1     2s        -0.0028   -0.4972   -0.3129
    3 C1     3s        -0.0043    0.0218    0.0440
    4 C1     2px       -0.0005    0.4947   -0.4673
    5 C1     3px       -0.0010    0.0977    0.1336
    6 C1     2py       -0.0013    0.2640    0.1903
    7 C1     3py       -0.0009    0.0019   -0.0450
    8 C5     2px       -0.0012   -0.0265    0.5635
    9 C5     3px       -0.0004   -0.0668   -0.1496
   10 H1     1s         0.0002   -0.3736    0.2814
   11 H1     2s        -0.0005    0.1715    0.0125



      Molecular orbitals for symmetry species 5: b1u


      Orbital                1         2
      Energy            0.0000    0.0000
      Occ. No.          1.9562    0.1029

    1 C1     2pz        0.6203   -0.7379
    2 C1     3pz       -0.0727   -0.0066
    3 C5     2pz        0.4387    1.0435
    4 C5     3pz       -0.0514    0.0094



      Molecular orbitals for symmetry species 6: b2g


      Orbital                1
      Energy            0.0000
      Occ. No.          1.8984

    1 C1     2pz        0.9236
    2 C1     3pz        0.0010



      Molecular orbitals for symmetry species 7: b3g


      Orbital                1         2
      Energy            0.0000    0.0000
      Occ. No.          1.8984    0.0414

    1 C1     2pz        0.5333   -1.2216
    2 C1     3pz        0.0006   -0.0121
    3 C5     2pz        0.7541    0.8638
    4 C5     3pz        0.0008    0.0085



      Molecular orbitals for symmetry species 8: au 


      Orbital                1
      Energy            0.0000
      Occ. No.          0.1029

    1 C1     2pz        1.2781
    2 C1     3pz        0.0115
--

      Von Neumann Entropy (Root  1) =  0.79784


      Mulliken population analysis for root number:  1
      -----------------------------------------------


++    Molecular charges:
      ------------------

      Mulliken charges per centre and basis function type
      ---------------------------------------------------

                C1      C5      H1      H5    
      1s       1.9989  1.9989  0.7325  0.7325
      2s       1.1813  1.1813  0.0424  0.0424
      2px      1.0254  0.8514  0.0000  0.0000
      2pz      1.0179  1.0179  0.0000  0.0000
      2py      0.9094  1.0834  0.0000  0.0000
      3s      -0.0124 -0.0124  0.0000  0.0000
      3px      0.0560  0.0716  0.0000  0.0000
      3pz     -0.0179 -0.0179  0.0000  0.0000
      3py      0.0664  0.0509  0.0000  0.0000
      Total    6.2252  6.2252  0.7748  0.7748

      N-E     -0.2252 -0.2252  0.2252  0.2252

      Total electronic charge=   42.000000

      Total            charge=   -0.000000
--



      Expectation values of various properties for root number:  1
      -----------------------------------------------------------


++    Molecular properties:
      ---------------------

      Charge (e):
                      =   -0.0000
      Dipole Moment (Debye):
      Origin of the operator (Ang)=    0.0000    0.0000    0.0000
                   X=  0.0000E+00               Y=  0.0000E+00               Z=  0.0000E+00           Total=  0.0000E+00
      Quadrupole Moment (Debye*Ang):
      Origin of the operator (Ang)=    0.0000    0.0000    0.0000
                  XX= -3.3507E+01              XY=  0.0000E+00              XZ=  0.0000E+00              YY= -3.3507E+01
                  YZ=  0.0000E+00              ZZ= -4.1657E+01
      In traceless form (Debye*Ang)
                  XX=  4.0751E+00              XY=  0.0000E+00              XZ=  0.0000E+00              YY=  4.0748E+00
                  YZ=  0.0000E+00              ZZ= -8.1499E+00
--


      LoProp population analysis for root number:  1
      -----------------------------------------------


++    LoProp analysis:
      ----------------



++    Static properties:
      ------------------


      LoProp Charges per center


                   C1       C5       H1       H5    
      Nuclear      6.0000   6.0000   1.0000   1.0000
      Electronic  -6.1280  -6.1280  -0.8720  -0.8720

      Total       -0.1280  -0.1280   0.1280   0.1280
--


      Natural Bond Order analysis for root number:  1

++    Natural Bond Order analysis
      ---------------------------
      Based on LoProp computed density
      -------------------------------------------------------------------------------------
      Atom A:Gen.  Atom B:Gen.  Bond Order | Atom A:Gen.  Atom B:Gen.  Bond Order
        C1    :E     H1    :E       0.999  |   C1    :E     C1    :y       1.819
        C1    :x     H1    :x       0.999  |   C1    :E     C5    :E       1.819
        C1    :y     H1    :y       0.999  |   C1    :x     C1    :xy      1.819
        C1    :xy    H1    :xy      0.999  |   C1    :x     C5    :E       1.819
        C5    :E     H5    :E       0.999  |   C1    :y     C5    :y       0.998
        C5    :y     H5    :y       0.999  |   C1    :xy    C5    :y       0.998
      -------------------------------------------------------------------------------------
      NBO located     11.998 core electrons.
      NBO located     30.537 electrons involved in   12 bonds.
      NBO analysis, and just that ONLY, did not converge to a
      proper answer, sorry. Calculation will continue as normal.
--

--


  Input file to MOLDEN was generated!

      Average orbitals are written to the RASORB file
      Natural orbitals for root   1 are written to the RASORB.1 file
      Spin density orbitals for root   1 are written to the SPDORB.1 file

Note: The following floating-point exceptions are signalling: IEEE_INVALID_FLAG IEEE_DIVIDE_BY_ZERO IEEE_UNDERFLOW_FLAG IEEE_DENORMAL
--- Stop Module: rasscf at Sun Oct 14 10:28:26 2018 /rc=_RC_ALL_IS_WELL_ ---
*** files: 001.LprOrb 001.rasscf.molden 001.RasOrb 001.RasOrb.1 001.SpdOrb.1 xmldump
    saved to directory /home/kml/test/stevenv
--- Module rasscf spent 15 seconds ---

--- Start Module: caspt2 at Sun Oct 14 10:28:26 2018 ---

()()()()()()()()()()()()()()()()()()()()()()()()()()()()()()()()()()()()()()()()()()()()()()()()()()

                                              &CASPT2

                                   only a single process is used
                       available to each process: 2.0 GB of memory, 1 thread?
()()()()()()()()()()()()()()()()()()()()()()()()()()()()()()()()()()()()()()()()()()()()()()()()()()

 Cholesky algorithm in CASPT2 =    1


++    Wave function specifications:
      -----------------------------

      Number of closed shell electrons          20
      Number of electrons in active shells      10
      Max number of holes in RAS1 space          2
      Max number of electrons in RAS3 space      2
      Number of inactive orbitals               10
      Number of active orbitals                 10
      Number of secondary orbitals              40
      Spin quantum number                      0.0
      State symmetry                             1
      Number of CSFs                          1452
      Number of root(s) available                1
      Root passed to geometry opt.               1
      A file JOBMIX will be created.
      This is a CASSCF or RASSCF reference function
--

++    Orbital specifications:
      -----------------------

      Symmetry species                           1   2   3   4   5   6   7   8
                                                ag b3u b2u b1g b1u b2g b3g  au
      Frozen orbitals                            2   1   2   1   0   0   0   0
      Inactive orbitals                          3   3   3   1   0   0   0   0
      Active orbitals                            1   1   1   1   2   1   2   1
      Secondary orbitals                        10   6  10   8   2   1   2   1
      Deleted orbitals                           0   0   0   0   0   0   0   0
      Number of basis functions                 16  11  16  11   4   2   4   2
--

      Type of Fock operator: STANDARD
      Type of 0-order Hamiltonian: STANDARD WITH DEFAULT IPEA
        "IP-EA" denominator shift =      0.25
      The input orbitals and the CI vector will be transformed.

--------------------------------------------------------------------------------
 Estimated memory requirements:
  POLY3 :                   500040
  RHS:                      260622
  SIGMA :                   260080
  PRPCTL:                        0
 Available workspace:    230353511

++ CASPT2 computation    1

********************************************************************************
 Multi-State initialization phase begins for group   1
--------------------------------------------------------------------------------
********************************************************************************
 Compute H0 matrices for state    1
--------------------------------------------------------------------------------
--------------------------------------------------------------------------------
 H0 matrices have been computed.

********************************************************************************
  CASPT2 EQUATION SOLUTION
--------------------------------------------------------------------------------

  Total nr of CASPT2 parameters:
   Before reduction:       65130
   After  reduction:       64990

 The contributions to the second order correlation energy in atomic units.
-----------------------------------------------------------------------------------------------------------------------------
  IT.      VJTU        VJTI        ATVX        AIVX        VJAI        BVAT        BJAT        BJAI        TOTAL       RNORM  
-----------------------------------------------------------------------------------------------------------------------------
   1    -0.012426   -0.007024   -0.026126   -0.095556   -0.020421   -0.021129   -0.073953   -0.126284   -0.382919    0.008304
   2    -0.012584   -0.007114   -0.026429   -0.096138   -0.020510   -0.021230   -0.074192   -0.126563   -0.384760    0.000941
   3    -0.012585   -0.007115   -0.026436   -0.096165   -0.020516   -0.021233   -0.074209   -0.126570   -0.384829    0.000151
   4    -0.012585   -0.007116   -0.026434   -0.096158   -0.020514   -0.021232   -0.074206   -0.126566   -0.384810    0.000023
   5    -0.012585   -0.007116   -0.026434   -0.096157   -0.020514   -0.021232   -0.074205   -0.126565   -0.384808    0.000004
-------------------------------------------------------------------------------------------------------------------

  FINAL CASPT2 RESULT:

      Reference energy:        -230.7256355281
      E2 (Non-variational):      -0.3848086660
      E2 (Variational):          -0.3848086850
      Total energy:            -231.1104442131
      Residual norm:              0.0000005433
      Reference weight:           0.86384

      Contributions to the CASPT2 correlation energy
      Active & Virtual Only:         -0.0476659456
      One Inactive Excited:          -0.1829474714
      Two Inactive Excited:          -0.1541952489


++ Denominators, etc.
----------------------------------------------------------------------------------------------------
 Report on small energy denominators, large coefficients, and large energy contributions.
CASE  SYMM ACTIVE-MIX  NON-ACTIVE INDICES          DENOMINATOR     RHS VALUE       COEFFICIENT     CONTRIBUTION
VJTU     2  Mu2.0006  In2.003                       1.94045084      0.05792935     -0.02959251     -0.00171427
VJTU     2  Mu2.0010  In2.003                       2.01812122     -0.07157575      0.03510782     -0.00251287
VJTU     2  Mu2.0012  In2.003                       2.03987596      0.07030851     -0.03396980     -0.00238837
ATVX     3  Mu3.0007  Se3.012                       2.05699120     -0.05948930      0.02877166     -0.00171161
ATVX     6  Mu6.0004  Se6.002                       1.30378186      0.03621560     -0.02698334     -0.00097722
ATVX     7  Mu7.0005  Se7.003                       1.31220330     -0.03485326      0.02579327     -0.00089898
AIVX     2  Mu2.0004  In2.003 Se1.012               1.73501755      0.04835199     -0.02768448     -0.00133860
AIVX     3  Mu3.0003  In2.003 Se4.006               1.73861254      0.04858616     -0.02776190     -0.00134884
AIVX     3  Mu3.0001  In2.003 Se4.007               1.95294348      0.05894768     -0.02944945     -0.00173598
AIVX     3  Mu3.0011  In2.003 Se4.007               2.86665150     -0.10126977      0.03476164     -0.00352030
--

   (Skipping property calculation,
    use PROP keyword to activate)
--

  Total CASPT2 energies:
::    CASPT2 Root  1     Total energy:   -231.11044421

  A NEW JOBIPH FILE NAMED 'JOBMIX' IS PREPARED.
********************************************************************************
Note: The following floating-point exceptions are signalling: IEEE_UNDERFLOW_FLAG IEEE_DENORMAL
--- Stop Module: caspt2 at Sun Oct 14 10:28:27 2018 /rc=_RC_ALL_IS_WELL_ ---
*** files: xmldump
    saved to directory /home/kml/test/stevenv
--- Module caspt2 spent 1 second ---

    Timing: Wall=19.38 User=12.84 System=6.47
