/home/eric/opt/apps/qchem/trunk_gcc_release_r20063_20160119_qints_r729/exe/qcprog.exe .force_hf_numerical.in.28456.qcin.1 /tmp/qchem/qchem28456/

Process 0 of 1 is on copper - thread support 0
initial socket setup ...start
initial socket setup ...done 
now start server 0 ... 
                  Welcome to Q-Chem
     A Quantum Leap Into The Future Of Chemistry


 Q-Chem 4.3, Q-Chem, Inc., Pleasanton, CA (2015)

 Y. Shao,  Z. Gan,  E. Epifanovsky,  A. T. B. Gilbert,  M. Wormit,  
 J. Kussmann,  A. W. Lange,  A. Behn,  J. Deng,  X. Feng,  D. Ghosh,  
 M. Goldey,  P. R. Horn,  L. D. Jacobson,  I. Kaliman,  R. Z. Khaliullin,  
 T. Kus,  A. Landau,  J. Liu,  E. I. Proynov,  Y. M. Rhee,  R. M. Richard,  
 M. A. Rohrdanz,  R. P. Steele,  E. J. Sundstrom,  H. L. Woodcock III,  
 P. M. Zimmerman,  D. Zuev,  B. Albrecht,  E. Alguire,  B. Austin,  
 S. A. Baeppler,  G. J. O. Beran,  Y. A. Bernard,  E. Berquist,  
 K. Brandhorst,  K. B. Bravaya,  S. T. Brown,  D. Casanova,  C.-M. Chang,  
 Y. Chen,  S. H. Chien,  K. D. Closser,  D. L. Crittenden,  M. Diedenhofen,  
 R. A. DiStasio Jr.,  H. Do,  A. D. Dutoi,  R. G. Edgar,  P.-T. Fang,  
 S. Fatehi,  Q. Feng,  L. Fusti-Molnar,  A. Ghysels,  
 A. Golubeva-Zadorozhnaya,  J. Gomes,  A. Gunina,  M. W. D. Hanson-Heine,  
 P. H. P. Harbach,  A. W. Hauser,  E. G. Hohenstein,  Z. C. Holden,  K. Hui,  
 T.-C. Jagau,  H. Ji,  B. Kaduk,  K. Khistyaev,  Jaehoon Kim,  Jihan Kim,  
 R. A. King,  P. Klunzinger,  D. Kosenkov,  T. Kowalczyk,  C. M. Krauter,  
 K. U. Lao,  A. Laurent,  K. V. Lawler,  S. Lehtola,  S. V. Levchenko,  
 C. Y. Lin,  Y.-S. Lin,  F. Liu,  E. Livshits,  R. C. Lochan,  A. Luenser,  
 P. Manohar,  S. F. Manzer,  S.-P. Mao,  N. Mardirossian,  A. V. Marenich,  
 L. A. Martinez-Martinez,  S. A. Maurer,  N. J. Mayhall,  K. Nanda,  
 C. M. Oana,  R. Olivares-Amaya,  D. P. O'Neill,  J. A. Parkhill,  
 T. M. Perrine,  R. Peverati,  P. A. Pieniazek,  F. Plasser,  A. Prociuk,  
 D. R. Rehn,  E. Rosta,  N. J. Russ,  N. Sergueev,  S. M. Sharada,  
 S. Sharma,  D. W. Small,  A. Sodt,  T. Stauch,  T. Stein,  D. Stuck,  
 Y.-C. Su,  A. J. W. Thom,  T. Tsuchimochi,  L. Vogt,  O. Vydrov,  T. Wang,  
 M. A. Watson,  J. Wenzel,  A. White,  C. F. Williams,  V. Vanovschi,  
 S. Yeganeh,  S. R. Yost,  Z.-Q. You,  I. Y. Zhang,  X. Zhang,  Y. Zhao,  
 B. R. Brooks,  G. K. L. Chan,  D. M. Chipman,  C. J. Cramer,  
 W. A. Goddard III,  M. S. Gordon,  W. J. Hehre,  A. Klamt,  
 H. F. Schaefer III,  M. W. Schmidt,  C. D. Sherrill,  D. G. Truhlar,  
 A. Warshel,  X. Xu,  A. Aspuru-Guzik,  R. Baer,  A. T. Bell,  N. A. Besley,  
 J.-D. Chai,  A. Dreuw,  B. D. Dunietz,  T. R. Furlani,  S. R. Gwaltney,  
 C.-P. Hsu,  Y. Jung,  J. Kong,  D. S. Lambrecht,  W. Liang,  C. Ochsenfeld,  
 V. A. Rassolov,  L. V. Slipchenko,  J. E. Subotnik,  T. Van Voorhis,  
 J. M. Herbert,  A. I. Krylov,  P. M. W. Gill,  M. Head-Gordon

 Contributors to earlier versions of Q-Chem not listed above: 
 R. D. Adamson,  J. Baker,  E. F. C. Byrd,  A. K. Chakraborty,  C.-L. Cheng,  
 H. Dachsel,  R. J. Doerksen,  G. Hawkins,  A. Heyden,  S. Hirata,  
 G. Kedziora,  F. J. Keil,  C. Kelley,  P. P. Korambath,  W. Kurlancheek,  
 A. M. Lee,  M. S. Lee,  D. Liotard,  I. Lotan,  P. E. Maslen,  N. Nair,  
 D. Neuhauser,  R. Olson,  B. Peters,  J. Ritchie,  N. E. Schultz,  
 N. Shenvi,  A. C. Simmonett,  K. S. Thanthiriwatte,  Q. Wu,  W. Zhang

 Please cite Q-Chem as follows:
 Y. Shao et al., Mol. Phys. 113, 184-215 (2015)
 DOI: 10.1080/00268976.2014.952696

 Q-Chem 4.3.0 for Intel X86 EM64T Linux

 Parts of Q-Chem use Armadillo 5.200.1 (Boston Tea Smuggler).
 http://arma.sourceforge.net/

 Q-Chem begins on Sat Jul  9 20:53:15 2016  

copper
Host: 0

     Scratch files written to /tmp/qchem/qchem28456//
 Parallel job on  1  processors

Checking the input file for inconsistencies... 	...done.

--------------------------------------------------------------
User input:
--------------------------------------------------------------
$rem
 jobtype force
 method hf
 basis 6-31g*
 symmetry false
 sym_ignore true
 ideriv 0
$end

$molecule
0 1
H     -0.5396003454    1.1649003260    0.0872286366
C      0.1788866951    0.5682133645    0.6252945742
C      1.1760899588   -0.1925516770   -0.1100290962
O      1.5080258155    1.0073321184    0.5338839151
H     -0.1327205638    0.2470104325    1.6053914340
C      1.2492222693   -0.1916255617   -1.6120028991
H      1.5882490302   -1.0662337231    0.3716124236
H      0.8139286891    0.7160013243   -2.0151045357
H      0.7172428607   -1.0464886824   -2.0201005727
H      2.2831855905   -0.2471579216   -1.9388238797
$end
--------------------------------------------------------------
 ----------------------------------------------------------------
             Standard Nuclear Orientation (Angstroms)
    I     Atom           X                Y                Z
 ----------------------------------------------------------------
    1      H      -0.5396003454     1.1649003260     0.0872286366
    2      C       0.1788866951     0.5682133645     0.6252945742
    3      C       1.1760899588    -0.1925516770    -0.1100290962
    4      O       1.5080258155     1.0073321184     0.5338839151
    5      H      -0.1327205638     0.2470104325     1.6053914340
    6      C       1.2492222693    -0.1916255617    -1.6120028991
    7      H       1.5882490302    -1.0662337231     0.3716124236
    8      H       0.8139286891     0.7160013243    -2.0151045357
    9      H       0.7172428607    -1.0464886824    -2.0201005727
   10      H       2.2831855905    -0.2471579216    -1.9388238797
 ----------------------------------------------------------------
 Nuclear Repulsion Energy =   126.0599973496 hartrees
 There are       16 alpha and       16 beta electrons
 Requested basis set is 6-31G(d)
 There are 28 shells and 72 basis functions

 Total QAlloc Memory Limit   2000 MB
 Mega-Array Size        61 MB
 MEM_STATIC part        62 MB

                       Distance Matrix (Angstroms)
             H (  1)   C (  2)   C (  3)   O (  4)   H (  5)   C (  6)
   C (  2)  1.077856
   C (  3)  2.196629  1.453918
   O (  4)  2.101690  1.402780  1.401616
   H (  5)  1.820135  1.077432  2.202014  2.101967
   C (  6)  2.815570  2.593930  1.503753  2.471702  3.528993
   H (  7)  3.096220  2.173033  1.079432  2.081452  2.491698  2.194222
   H (  8)  2.540346  2.719711  2.141481  2.657816  3.771484  1.084324
   H (  9)  3.303140  3.145665  2.141990  3.371402  3.942052  1.086433
   H ( 10)  3.750589  3.415788  2.138488  2.879045  4.317669  1.085807
             H (  7)   H (  8)   H (  9)
   H (  8)  3.077719
   H (  9)  2.545453  1.765147
   H ( 10)  2.547928  1.758468  1.760032

 tim1(1): 
   0.0000000000000000     
 tim1(2): 
   0.0000000000000000     
 A cutoff of  1.0D-11 yielded    404 shell pairs
 There are      2734 function pairs

 -------------------------------------------------------
 OpenMP Integral Computing Module                       
 Release: version 1.0, May 2013, Q-Chem Inc. Pittsburgh 
 -------------------------------------------------------
 Integral Job Info:
 Integral job number is                      11
 Integral operator is                         1
 short-range coefficients                     0
 long-range coefficients              100000000
 Omega coefficients                           0
 if combine SR and LR in K                    0
 Integral screening is                        0
 Integral computing path is                   2
 max size of driver memory is            800000
 size of driver memory is                593474
 size of scratch memory is              2260544
 max col of scratch BK array               1296
 max len of scratch array in speh3          155
 max len of scratch index in speh4           18
 max int batch size is                      520
 min int batch size is                       52
 fixed nKL is                                52
 max L of basis functions is                  2
 order of int derivative is                   0
 number of shells is                         28
 number of basis is                          72
 number of cartesian basis is                72
 number of contracted shell pairs           404
 number of primitive shell pairs           1745
 maxK2 (contraction) of shell pair           36
 max number of K2 of shell pair               1
 max number of CS2 of shell pair             50
 max number of PS2 of shell pair            258
 mem total for path MDJ                   16216
 -------------------------------------------------------
 Smallest overlap matrix eigenvalue = 3.68E-03

 Scale SEOQF with 1.000000e-01/1.000000e+00/1.000000e-01

 Standard Electronic Orientation quadrupole field applied
 Nucleus-field energy     =     0.0000000084 hartrees
 Finite diff step size: 1.89e-03 a.u.
 ----------------------------------------------------------------
             Standard Nuclear Orientation (Angstroms)
    I     Atom           X                Y                Z
 ----------------------------------------------------------------
    1      H      -0.5386003454     1.1649003260     0.0872286366
    2      C       0.1788866951     0.5682133645     0.6252945742
    3      C       1.1760899588    -0.1925516770    -0.1100290962
    4      O       1.5080258155     1.0073321184     0.5338839151
    5      H      -0.1327205638     0.2470104325     1.6053914340
    6      C       1.2492222693    -0.1916255617    -1.6120028991
    7      H       1.5882490302    -1.0662337231     0.3716124236
    8      H       0.8139286891     0.7160013243    -2.0151045357
    9      H       0.7172428607    -1.0464886824    -2.0201005727
   10      H       2.2831855905    -0.2471579216    -1.9388238797
 ----------------------------------------------------------------
 Nuclear Repulsion Energy =   126.0636863183 hartrees
 There are       16 alpha and       16 beta electrons

                       Distance Matrix (Angstroms)
             H (  1)   C (  2)   C (  3)   O (  4)   H (  5)   C (  6)
   C (  2)  1.077190
   C (  3)  2.195848  1.453918
   O (  4)  2.100716  1.402780  1.401616
   H (  5)  1.819912  1.077432  2.202014  2.101967
   C (  6)  2.814935  2.593930  1.503753  2.471702  3.528993
   H (  7)  3.095533  2.173033  1.079432  2.081452  2.491698  2.194222
   H (  8)  2.539813  2.719711  2.141481  2.657816  3.771484  1.084324
   H (  9)  3.302759  3.145665  2.141990  3.371402  3.942052  1.086433
   H ( 10)  3.749836  3.415788  2.138488  2.879045  4.317669  1.085807
             H (  7)   H (  8)   H (  9)
   H (  8)  3.077719
   H (  9)  2.545453  1.765147
   H ( 10)  2.547928  1.758468  1.760032

 Applying Cartesian multipole field
    Component          Value
    ---------          -----
     (2,0,0)        1.00000E-11
     (0,2,0)        2.00000E-10
     (0,0,2)       -3.00000E-11
 Nucleus-field energy     =     0.0000000084 hartrees
 Requested basis set is 6-31G(d)
 There are 28 shells and 72 basis functions
 tim1(1): 
   3.3340000000000036E-003
 tim1(2): 
   0.0000000000000000     
 A cutoff of  1.0D-11 yielded    404 shell pairs
 There are      2734 function pairs
 Smallest overlap matrix eigenvalue = 3.68E-03
 Guess from superposition of atomic densities
 Warning:  Energy on first SCF cycle will be non-variational
 A restricted Hartree-Fock SCF calculation will be
 performed using Pulay DIIS extrapolation
 SCF converges when DIIS error is below 1.0E-08
 ---------------------------------------
  Cycle       Energy         DIIS Error
 ---------------------------------------
    1    -193.3085371150      1.04E-01
    2    -191.8496397566      9.23E-03
    3    -191.8975392750      4.82E-03
    4    -191.9086686623      1.25E-03
    5    -191.9096867743      2.03E-04
    6    -191.9097223485      5.96E-05
    7    -191.9097261237      1.48E-05
    8    -191.9097264962      3.45E-06
    9    -191.9097265158      5.90E-07
   10    -191.9097265163      1.70E-07
   11    -191.9097265164      5.08E-08
   12    -191.9097265164      1.61E-08
   13    -191.9097265164      4.13E-09 Convergence criterion met
 ---------------------------------------
 SCF time:  CPU 1.38 s  wall 1.28 s
 SCF   energy in the final basis set = -191.9097265164
 Total energy in the final basis set = -191.9097265164

 --------------------------------------------------------------

                    Orbital Energies (a.u.)
 --------------------------------------------------------------

 Alpha MOs
 -- Occupied --
-20.568 -11.284 -11.276 -11.222  -1.427  -1.012  -0.908  -0.819
 -0.703  -0.649  -0.589  -0.565  -0.526  -0.519  -0.440  -0.431
 -- Virtual --
  0.248   0.280   0.281   0.293   0.314   0.334   0.339   0.344
  0.428   0.508   0.672   0.731   0.774   0.791   0.836   0.877
  0.899   0.955   1.010   1.083   1.132   1.145   1.166   1.192
  1.209   1.222   1.252   1.292   1.326   1.515   1.655   1.716
  1.745   1.886   1.953   2.060   2.123   2.213   2.299   2.384
  2.469   2.491   2.510   2.636   2.652   2.686   2.753   2.884
  2.951   3.081   3.224   3.319   4.227   4.596   4.693   4.887
 --------------------------------------------------------------

          Ground-State Mulliken Net Atomic Charges

     Atom                 Charge (a.u.)
  ----------------------------------------
      1 H                     0.174337
      2 C                    -0.099716
      3 C                     0.103054
      4 O                    -0.554144
      5 H                     0.176515
      6 C                    -0.500930
      7 H                     0.180276
      8 H                     0.177876
      9 H                     0.164114
     10 H                     0.178617
  ----------------------------------------
  Sum of atomic charges =     0.000000

 -----------------------------------------------------------------
                    Cartesian Multipole Moments
 -----------------------------------------------------------------
    Charge (ESU x 10^10)
                 0.0000
    Dipole Moment (Debye)
         X      -1.4654      Y      -1.5541      Z      -0.6981
       Tot       2.2472
    Quadrupole Moments (Debye-Ang)
        XX     -27.4987     XY      -4.0941     YY     -26.5099
        XZ      -2.2217     YZ      -1.0950     ZZ     -24.2546
    Octopole Moments (Debye-Ang^2)
       XXX     -78.3375    XXY     -12.6491    XYY     -28.7809
       YYY     -21.2206    XXZ       1.6913    XYZ      -2.1131
       YYZ       4.3588    XZZ     -25.5566    YZZ      -6.6566
       ZZZ      18.5405
    Hexadecapole Moments (Debye-Ang^3)
      XXXX    -231.2766   XXXY     -23.2217   XXYY     -58.6347
      XYYY     -17.7435   YYYY     -88.8598   XXXZ      25.8034
      XXYZ     -11.0428   XYYZ      10.7575   YYYZ     -23.5387
      XXZZ     -70.6432   XYZZ      -5.2635   YYZZ     -45.9575
      XZZZ      33.3078   YZZZ     -23.1496   ZZZZ    -191.4862
 -----------------------------------------------------------------
 ----------------------------------------------------------------
             Standard Nuclear Orientation (Angstroms)
    I     Atom           X                Y                Z
 ----------------------------------------------------------------
    1      H      -0.5406003454     1.1649003260     0.0872286366
    2      C       0.1788866951     0.5682133645     0.6252945742
    3      C       1.1760899588    -0.1925516770    -0.1100290962
    4      O       1.5080258155     1.0073321184     0.5338839151
    5      H      -0.1327205638     0.2470104325     1.6053914340
    6      C       1.2492222693    -0.1916255617    -1.6120028991
    7      H       1.5882490302    -1.0662337231     0.3716124236
    8      H       0.8139286891     0.7160013243    -2.0151045357
    9      H       0.7172428607    -1.0464886824    -2.0201005727
   10      H       2.2831855905    -0.2471579216    -1.9388238797
 ----------------------------------------------------------------
 Nuclear Repulsion Energy =   126.0563102733 hartrees
 There are       16 alpha and       16 beta electrons

                       Distance Matrix (Angstroms)
             H (  1)   C (  2)   C (  3)   O (  4)   H (  5)   C (  6)
   C (  2)  1.078523
   C (  3)  2.197410  1.453918
   O (  4)  2.102664  1.402780  1.401616
   H (  5)  1.820359  1.077432  2.202014  2.101967
   C (  6)  2.816206  2.593930  1.503753  2.471702  3.528993
   H (  7)  3.096907  2.173033  1.079432  2.081452  2.491698  2.194222
   H (  8)  2.540879  2.719711  2.141481  2.657816  3.771484  1.084324
   H (  9)  3.303520  3.145665  2.141990  3.371402  3.942052  1.086433
   H ( 10)  3.751342  3.415788  2.138488  2.879045  4.317669  1.085807
             H (  7)   H (  8)   H (  9)
   H (  8)  3.077719
   H (  9)  2.545453  1.765147
   H ( 10)  2.547928  1.758468  1.760032

 Applying Cartesian multipole field
    Component          Value
    ---------          -----
     (2,0,0)        1.00000E-11
     (0,2,0)        2.00000E-10
     (0,0,2)       -3.00000E-11
 Nucleus-field energy     =     0.0000000084 hartrees
 Requested basis set is 6-31G(d)
 There are 28 shells and 72 basis functions
 tim1(1): 
   0.0000000000000000     
 tim1(2): 
   0.0000000000000000     
 A cutoff of  1.0D-11 yielded    404 shell pairs
 There are      2734 function pairs
 Smallest overlap matrix eigenvalue = 3.68E-03
 Guess MOs from SCF MO coefficient file
 Reading MOs from coefficient file
 Reading MOs from coefficient file
 A restricted Hartree-Fock SCF calculation will be
 performed using Pulay DIIS extrapolation
 SCF converges when DIIS error is below 1.0E-08
 ---------------------------------------
  Cycle       Energy         DIIS Error
 ---------------------------------------
    1    -191.9092096175      5.07E-05
    2    -191.9097259113      8.43E-06
    3    -191.9097259655      4.21E-06
    4    -191.9097259752      1.08E-06
    5    -191.9097259765      3.72E-07
    6    -191.9097259766      1.37E-07
    7    -191.9097259767      4.27E-08
    8    -191.9097259767      1.21E-08
    9    -191.9097259767      3.15E-09 Convergence criterion met
 ---------------------------------------
 SCF time:  CPU 0.95 s  wall 0.88 s
 SCF   energy in the final basis set = -191.9097259767
 Total energy in the final basis set = -191.9097259767

 --------------------------------------------------------------

                    Orbital Energies (a.u.)
 --------------------------------------------------------------

 Alpha MOs
 -- Occupied --
-20.568 -11.284 -11.276 -11.222  -1.427  -1.012  -0.908  -0.819
 -0.703  -0.649  -0.589  -0.564  -0.526  -0.519  -0.440  -0.431
 -- Virtual --
  0.248   0.280   0.281   0.293   0.314   0.334   0.339   0.344
  0.428   0.508   0.672   0.731   0.774   0.791   0.836   0.877
  0.899   0.955   1.010   1.083   1.132   1.145   1.166   1.192
  1.209   1.222   1.252   1.292   1.326   1.515   1.655   1.716
  1.745   1.886   1.953   2.060   2.123   2.213   2.299   2.383
  2.469   2.491   2.509   2.636   2.652   2.686   2.753   2.884
  2.951   3.081   3.224   3.319   4.227   4.596   4.693   4.887
 --------------------------------------------------------------

          Ground-State Mulliken Net Atomic Charges

     Atom                 Charge (a.u.)
  ----------------------------------------
      1 H                     0.174139
      2 C                    -0.099783
      3 C                     0.103202
      4 O                    -0.554023
      5 H                     0.176476
      6 C                    -0.500936
      7 H                     0.180288
      8 H                     0.177908
      9 H                     0.164118
     10 H                     0.178612
  ----------------------------------------
  Sum of atomic charges =     0.000000

 -----------------------------------------------------------------
                    Cartesian Multipole Moments
 -----------------------------------------------------------------
    Charge (ESU x 10^10)
                -0.0000
    Dipole Moment (Debye)
         X      -1.4646      Y      -1.5547      Z      -0.6980
       Tot       2.2471
    Quadrupole Moments (Debye-Ang)
        XX     -27.4967     XY      -4.0939     YY     -26.5125
        XZ      -2.2213     YZ      -1.0945     ZZ     -24.2561
    Octopole Moments (Debye-Ang^2)
       XXX     -78.3283    XXY     -12.6472    XYY     -28.7787
       YYY     -21.2282    XXZ       1.6923    XYZ      -2.1126
       YYZ       4.3589    XZZ     -25.5539    YZZ      -6.6578
       ZZZ      18.5370
    Hexadecapole Moments (Debye-Ang^3)
      XXXX    -231.2784   XXXY     -23.2132   XXYY     -58.6346
      XYYY     -17.7362   YYYY     -88.8772   XXXZ      25.8070
      XXYZ     -11.0423   XYYZ      10.7583   YYYZ     -23.5391
      XXZZ     -70.6443   XYZZ      -5.2604   YYZZ     -45.9594
      XZZZ      33.3075   YZZZ     -23.1500   ZZZZ    -191.4886
 -----------------------------------------------------------------
 ----------------------------------------------------------------
             Standard Nuclear Orientation (Angstroms)
    I     Atom           X                Y                Z
 ----------------------------------------------------------------
    1      H      -0.5396003454     1.1659003260     0.0872286366
    2      C       0.1788866951     0.5682133645     0.6252945742
    3      C       1.1760899588    -0.1925516770    -0.1100290962
    4      O       1.5080258155     1.0073321184     0.5338839151
    5      H      -0.1327205638     0.2470104325     1.6053914340
    6      C       1.2492222693    -0.1916255617    -1.6120028991
    7      H       1.5882490302    -1.0662337231     0.3716124236
    8      H       0.8139286891     0.7160013243    -2.0151045357
    9      H       0.7172428607    -1.0464886824    -2.0201005727
   10      H       2.2831855905    -0.2471579216    -1.9388238797
 ----------------------------------------------------------------
 Nuclear Repulsion Energy =   126.0576311717 hartrees
 There are       16 alpha and       16 beta electrons

                       Distance Matrix (Angstroms)
             H (  1)   C (  2)   C (  3)   O (  4)   H (  5)   C (  6)
   C (  2)  1.078410
   C (  3)  2.197247  1.453918
   O (  4)  2.101765  1.402780  1.401616
   H (  5)  1.820639  1.077432  2.202014  2.101967
   C (  6)  2.816052  2.593930  1.503753  2.471702  3.528993
   H (  7)  3.096940  2.173033  1.079432  2.081452  2.491698  2.194222
   H (  8)  2.540523  2.719711  2.141481  2.657816  3.771484  1.084324
   H (  9)  3.303809  3.145665  2.141990  3.371402  3.942052  1.086433
   H ( 10)  3.750966  3.415788  2.138488  2.879045  4.317669  1.085807
             H (  7)   H (  8)   H (  9)
   H (  8)  3.077719
   H (  9)  2.545453  1.765147
   H ( 10)  2.547928  1.758468  1.760032

 Applying Cartesian multipole field
    Component          Value
    ---------          -----
     (2,0,0)        1.00000E-11
     (0,2,0)        2.00000E-10
     (0,0,2)       -3.00000E-11
 Nucleus-field energy     =     0.0000000084 hartrees
 Requested basis set is 6-31G(d)
 There are 28 shells and 72 basis functions
 tim1(1): 
   0.0000000000000000     
 tim1(2): 
   0.0000000000000000     
 A cutoff of  1.0D-11 yielded    404 shell pairs
 There are      2734 function pairs
 Smallest overlap matrix eigenvalue = 3.68E-03
 Guess MOs from SCF MO coefficient file
 Reading MOs from coefficient file
 Reading MOs from coefficient file
 A restricted Hartree-Fock SCF calculation will be
 performed using Pulay DIIS extrapolation
 SCF converges when DIIS error is below 1.0E-08
 ---------------------------------------
  Cycle       Energy         DIIS Error
 ---------------------------------------
    1    -191.9097664710      1.25E-05
    2    -191.9097262639      3.65E-06
    3    -191.9097262752      2.18E-06
    4    -191.9097262783      5.54E-07
    5    -191.9097262789      1.52E-07
    6    -191.9097262789      5.42E-08
    7    -191.9097262789      1.58E-08
    8    -191.9097262789      3.36E-09 Convergence criterion met
 ---------------------------------------
 SCF time:  CPU 0.91 s  wall 0.83 s
 SCF   energy in the final basis set = -191.9097262789
 Total energy in the final basis set = -191.9097262789

 --------------------------------------------------------------

                    Orbital Energies (a.u.)
 --------------------------------------------------------------

 Alpha MOs
 -- Occupied --
-20.568 -11.284 -11.276 -11.222  -1.427  -1.012  -0.908  -0.819
 -0.703  -0.649  -0.589  -0.564  -0.526  -0.519  -0.440  -0.431
 -- Virtual --
  0.248   0.280   0.281   0.293   0.314   0.334   0.339   0.344
  0.428   0.508   0.672   0.731   0.774   0.791   0.836   0.877
  0.899   0.955   1.010   1.083   1.132   1.145   1.166   1.192
  1.209   1.222   1.252   1.292   1.326   1.514   1.655   1.716
  1.745   1.886   1.953   2.060   2.123   2.213   2.299   2.384
  2.469   2.491   2.510   2.636   2.652   2.686   2.753   2.884
  2.951   3.081   3.224   3.319   4.227   4.596   4.693   4.887
 --------------------------------------------------------------

          Ground-State Mulliken Net Atomic Charges

     Atom                 Charge (a.u.)
  ----------------------------------------
      1 H                     0.174213
      2 C                    -0.099832
      3 C                     0.103184
      4 O                    -0.554071
      5 H                     0.176518
      6 C                    -0.500930
      7 H                     0.180293
      8 H                     0.177901
      9 H                     0.164117
     10 H                     0.178607
  ----------------------------------------
  Sum of atomic charges =     0.000000

 -----------------------------------------------------------------
                    Cartesian Multipole Moments
 -----------------------------------------------------------------
    Charge (ESU x 10^10)
                 0.0000
    Dipole Moment (Debye)
         X      -1.4646      Y      -1.5544      Z      -0.6978
       Tot       2.2468
    Quadrupole Moments (Debye-Ang)
        XX     -27.4985     XY      -4.0945     YY     -26.5105
        XZ      -2.2215     YZ      -1.0949     ZZ     -24.2555
    Octopole Moments (Debye-Ang^2)
       XXX     -78.3322    XXY     -12.6498    XYY     -28.7801
       YYY     -21.2261    XXZ       1.6917    XYZ      -2.1130
       YYZ       4.3586    XZZ     -25.5552    YZZ      -6.6585
       ZZZ      18.5389
    Hexadecapole Moments (Debye-Ang^3)
      XXXX    -231.2800   XXXY     -23.2168   XXYY     -58.6363
      XYYY     -17.7398   YYYY     -88.8782   XXXZ      25.8053
      XXYZ     -11.0433   XYYZ      10.7580   YYYZ     -23.5399
      XXZZ     -70.6448   XYZZ      -5.2612   YYZZ     -45.9609
      XZZZ      33.3076   YZZZ     -23.1504   ZZZZ    -191.4860
 -----------------------------------------------------------------
 ----------------------------------------------------------------
             Standard Nuclear Orientation (Angstroms)
    I     Atom           X                Y                Z
 ----------------------------------------------------------------
    1      H      -0.5396003454     1.1639003260     0.0872286366
    2      C       0.1788866951     0.5682133645     0.6252945742
    3      C       1.1760899588    -0.1925516770    -0.1100290962
    4      O       1.5080258155     1.0073321184     0.5338839151
    5      H      -0.1327205638     0.2470104325     1.6053914340
    6      C       1.2492222693    -0.1916255617    -1.6120028991
    7      H       1.5882490302    -1.0662337231     0.3716124236
    8      H       0.8139286891     0.7160013243    -2.0151045357
    9      H       0.7172428607    -1.0464886824    -2.0201005727
   10      H       2.2831855905    -0.2471579216    -1.9388238797
 ----------------------------------------------------------------
 Nuclear Repulsion Energy =   126.0623628344 hartrees
 There are       16 alpha and       16 beta electrons

                       Distance Matrix (Angstroms)
             H (  1)   C (  2)   C (  3)   O (  4)   H (  5)   C (  6)
   C (  2)  1.077303
   C (  3)  2.196011  1.453918
   O (  4)  2.101615  1.402780  1.401616
   H (  5)  1.819631  1.077432  2.202014  2.101967
   C (  6)  2.815089  2.593930  1.503753  2.471702  3.528993
   H (  7)  3.095499  2.173033  1.079432  2.081452  2.491698  2.194222
   H (  8)  2.540169  2.719711  2.141481  2.657816  3.771484  1.084324
   H (  9)  3.302470  3.145665  2.141990  3.371402  3.942052  1.086433
   H ( 10)  3.750213  3.415788  2.138488  2.879045  4.317669  1.085807
             H (  7)   H (  8)   H (  9)
   H (  8)  3.077719
   H (  9)  2.545453  1.765147
   H ( 10)  2.547928  1.758468  1.760032

 Applying Cartesian multipole field
    Component          Value
    ---------          -----
     (2,0,0)        1.00000E-11
     (0,2,0)        2.00000E-10
     (0,0,2)       -3.00000E-11
 Nucleus-field energy     =     0.0000000084 hartrees
 Requested basis set is 6-31G(d)
 There are 28 shells and 72 basis functions
 tim1(1): 
   0.0000000000000000     
 tim1(2): 
   0.0000000000000000     
 A cutoff of  1.0D-11 yielded    404 shell pairs
 There are      2734 function pairs
 Smallest overlap matrix eigenvalue = 3.68E-03
 Guess MOs from SCF MO coefficient file
 Reading MOs from coefficient file
 Reading MOs from coefficient file
 A restricted Hartree-Fock SCF calculation will be
 performed using Pulay DIIS extrapolation
 SCF converges when DIIS error is below 1.0E-08
 ---------------------------------------
  Cycle       Energy         DIIS Error
 ---------------------------------------
    1    -191.9101620253      4.22E-05
    2    -191.9097263463      7.31E-06
    3    -191.9097263925      2.54E-06
    4    -191.9097263979      8.69E-07
    5    -191.9097263989      2.93E-07
    6    -191.9097263990      1.12E-07
    7    -191.9097263991      4.30E-08
    8    -191.9097263991      1.27E-08
    9    -191.9097263991      3.28E-09 Convergence criterion met
 ---------------------------------------
 SCF time:  CPU 1.01 s  wall 0.92 s
 SCF   energy in the final basis set = -191.9097263991
 Total energy in the final basis set = -191.9097263991

 --------------------------------------------------------------

                    Orbital Energies (a.u.)
 --------------------------------------------------------------

 Alpha MOs
 -- Occupied --
-20.568 -11.284 -11.276 -11.222  -1.427  -1.012  -0.908  -0.819
 -0.703  -0.649  -0.589  -0.564  -0.526  -0.519  -0.440  -0.431
 -- Virtual --
  0.248   0.280   0.281   0.293   0.314   0.334   0.339   0.344
  0.428   0.508   0.672   0.730   0.774   0.791   0.836   0.877
  0.899   0.955   1.010   1.083   1.132   1.145   1.166   1.192
  1.209   1.222   1.252   1.292   1.326   1.515   1.655   1.716
  1.745   1.886   1.953   2.060   2.123   2.213   2.299   2.384
  2.469   2.491   2.509   2.636   2.652   2.686   2.753   2.884
  2.951   3.081   3.224   3.319   4.227   4.596   4.693   4.887
 --------------------------------------------------------------

          Ground-State Mulliken Net Atomic Charges

     Atom                 Charge (a.u.)
  ----------------------------------------
      1 H                     0.174263
      2 C                    -0.099667
      3 C                     0.103072
      4 O                    -0.554095
      5 H                     0.176472
      6 C                    -0.500936
      7 H                     0.180270
      8 H                     0.177884
      9 H                     0.164116
     10 H                     0.178621
  ----------------------------------------
  Sum of atomic charges =    -0.000000

 -----------------------------------------------------------------
                    Cartesian Multipole Moments
 -----------------------------------------------------------------
    Charge (ESU x 10^10)
                -0.0000
    Dipole Moment (Debye)
         X      -1.4654      Y      -1.5544      Z      -0.6983
       Tot       2.2475
    Quadrupole Moments (Debye-Ang)
        XX     -27.4969     XY      -4.0936     YY     -26.5118
        XZ      -2.2214     YZ      -1.0946     ZZ     -24.2553
    Octopole Moments (Debye-Ang^2)
       XXX     -78.3337    XXY     -12.6465    XYY     -28.7795
       YYY     -21.2227    XXZ       1.6920    XYZ      -2.1126
       YYZ       4.3591    XZZ     -25.5553    YZZ      -6.6559
       ZZZ      18.5386
    Hexadecapole Moments (Debye-Ang^3)
      XXXX    -231.2750   XXXY     -23.2182   XXYY     -58.6331
      XYYY     -17.7399   YYYY     -88.8588   XXXZ      25.8050
      XXYZ     -11.0418   XYYZ      10.7577   YYYZ     -23.5379
      XXZZ     -70.6427   XYZZ      -5.2627   YYZZ     -45.9560
      XZZZ      33.3076   YZZZ     -23.1491   ZZZZ    -191.4889
 -----------------------------------------------------------------
 ----------------------------------------------------------------
             Standard Nuclear Orientation (Angstroms)
    I     Atom           X                Y                Z
 ----------------------------------------------------------------
    1      H      -0.5396003454     1.1649003260     0.0882286366
    2      C       0.1788866951     0.5682133645     0.6252945742
    3      C       1.1760899588    -0.1925516770    -0.1100290962
    4      O       1.5080258155     1.0073321184     0.5338839151
    5      H      -0.1327205638     0.2470104325     1.6053914340
    6      C       1.2492222693    -0.1916255617    -1.6120028991
    7      H       1.5882490302    -1.0662337231     0.3716124236
    8      H       0.8139286891     0.7160013243    -2.0151045357
    9      H       0.7172428607    -1.0464886824    -2.0201005727
   10      H       2.2831855905    -0.2471579216    -1.9388238797
 ----------------------------------------------------------------
 Nuclear Repulsion Energy =   126.0612830896 hartrees
 There are       16 alpha and       16 beta electrons

                       Distance Matrix (Angstroms)
             H (  1)   C (  2)   C (  3)   O (  4)   H (  5)   C (  6)
   C (  2)  1.077357
   C (  3)  2.196719  1.453918
   O (  4)  2.101478  1.402780  1.401616
   H (  5)  1.819301  1.077432  2.202014  2.101967
   C (  6)  2.816174  2.593930  1.503753  2.471702  3.528993
   H (  7)  3.096128  2.173033  1.079432  2.081452  2.491698  2.194222
   H (  8)  2.541173  2.719711  2.141481  2.657816  3.771484  1.084324
   H (  9)  3.303778  3.145665  2.141990  3.371402  3.942052  1.086433
   H ( 10)  3.751129  3.415788  2.138488  2.879045  4.317669  1.085807
             H (  7)   H (  8)   H (  9)
   H (  8)  3.077719
   H (  9)  2.545453  1.765147
   H ( 10)  2.547928  1.758468  1.760032

 Applying Cartesian multipole field
    Component          Value
    ---------          -----
     (2,0,0)        1.00000E-11
     (0,2,0)        2.00000E-10
     (0,0,2)       -3.00000E-11
 Nucleus-field energy     =     0.0000000084 hartrees
 Requested basis set is 6-31G(d)
 There are 28 shells and 72 basis functions
 tim1(1): 
   0.0000000000000000     
 tim1(2): 
   0.0000000000000000     
 A cutoff of  1.0D-11 yielded    404 shell pairs
 There are      2734 function pairs
 Smallest overlap matrix eigenvalue = 3.68E-03
 Guess MOs from SCF MO coefficient file
 Reading MOs from coefficient file
 Reading MOs from coefficient file
 A restricted Hartree-Fock SCF calculation will be
 performed using Pulay DIIS extrapolation
 SCF converges when DIIS error is below 1.0E-08
 ---------------------------------------
  Cycle       Energy         DIIS Error
 ---------------------------------------
    1    -191.9097133881      1.17E-05
    2    -191.9097272854      3.06E-06
    3    -191.9097272956      1.38E-06
    4    -191.9097272973      4.43E-07
    5    -191.9097272975      1.45E-07
    6    -191.9097272976      5.37E-08
    7    -191.9097272976      1.38E-08
    8    -191.9097272976      3.60E-09 Convergence criterion met
 ---------------------------------------
 SCF time:  CPU 0.90 s  wall 0.83 s
 SCF   energy in the final basis set = -191.9097272976
 Total energy in the final basis set = -191.9097272976

 --------------------------------------------------------------

                    Orbital Energies (a.u.)
 --------------------------------------------------------------

 Alpha MOs
 -- Occupied --
-20.568 -11.284 -11.276 -11.222  -1.427  -1.012  -0.908  -0.819
 -0.703  -0.649  -0.589  -0.564  -0.526  -0.519  -0.440  -0.431
 -- Virtual --
  0.248   0.280   0.281   0.293   0.314   0.334   0.339   0.344
  0.428   0.508   0.672   0.730   0.774   0.791   0.836   0.877
  0.899   0.955   1.010   1.083   1.132   1.145   1.166   1.192
  1.209   1.222   1.252   1.292   1.326   1.515   1.655   1.716
  1.745   1.886   1.953   2.060   2.123   2.213   2.299   2.384
  2.469   2.491   2.510   2.636   2.652   2.686   2.753   2.884
  2.951   3.082   3.224   3.319   4.227   4.596   4.693   4.887
 --------------------------------------------------------------

          Ground-State Mulliken Net Atomic Charges

     Atom                 Charge (a.u.)
  ----------------------------------------
      1 H                     0.174296
      2 C                    -0.099702
      3 C                     0.103105
      4 O                    -0.554112
      5 H                     0.176429
      6 C                    -0.500929
      7 H                     0.180291
      8 H                     0.177897
      9 H                     0.164115
     10 H                     0.178610
  ----------------------------------------
  Sum of atomic charges =    -0.000000

 -----------------------------------------------------------------
                    Cartesian Multipole Moments
 -----------------------------------------------------------------
    Charge (ESU x 10^10)
                -0.0000
    Dipole Moment (Debye)
         X      -1.4653      Y      -1.5540      Z      -0.6982
       Tot       2.2471
    Quadrupole Moments (Debye-Ang)
        XX     -27.4967     XY      -4.0947     YY     -26.5098
        XZ      -2.2220     YZ      -1.0939     ZZ     -24.2564
    Octopole Moments (Debye-Ang^2)
       XXX     -78.3336    XXY     -12.6477    XYY     -28.7805
       YYY     -21.2214    XXZ       1.6917    XYZ      -2.1138
       YYZ       4.3594    XZZ     -25.5558    YZZ      -6.6566
       ZZZ      18.5337
    Hexadecapole Moments (Debye-Ang^3)
      XXXX    -231.2747   XXXY     -23.2196   XXYY     -58.6332
      XYYY     -17.7419   YYYY     -88.8612   XXXZ      25.8064
      XXYZ     -11.0429   XYYZ      10.7573   YYYZ     -23.5392
      XXZZ     -70.6441   XYZZ      -5.2624   YYZZ     -45.9577
      XZZZ      33.3088   YZZZ     -23.1524   ZZZZ    -191.4942
 -----------------------------------------------------------------
 ----------------------------------------------------------------
             Standard Nuclear Orientation (Angstroms)
    I     Atom           X                Y                Z
 ----------------------------------------------------------------
    1      H      -0.5396003454     1.1649003260     0.0862286366
    2      C       0.1788866951     0.5682133645     0.6252945742
    3      C       1.1760899588    -0.1925516770    -0.1100290962
    4      O       1.5080258155     1.0073321184     0.5338839151
    5      H      -0.1327205638     0.2470104325     1.6053914340
    6      C       1.2492222693    -0.1916255617    -1.6120028991
    7      H       1.5882490302    -1.0662337231     0.3716124236
    8      H       0.8139286891     0.7160013243    -2.0151045357
    9      H       0.7172428607    -1.0464886824    -2.0201005727
   10      H       2.2831855905    -0.2471579216    -1.9388238797
 ----------------------------------------------------------------
 Nuclear Repulsion Energy =   126.0587104104 hartrees
 There are       16 alpha and       16 beta electrons

                       Distance Matrix (Angstroms)
             H (  1)   C (  2)   C (  3)   O (  4)   H (  5)   C (  6)
   C (  2)  1.078356
   C (  3)  2.196540  1.453918
   O (  4)  2.101903  1.402780  1.401616
   H (  5)  1.820969  1.077432  2.202014  2.101967
   C (  6)  2.814967  2.593930  1.503753  2.471702  3.528993
   H (  7)  3.096312  2.173033  1.079432  2.081452  2.491698  2.194222
   H (  8)  2.539518  2.719711  2.141481  2.657816  3.771484  1.084324
   H (  9)  3.302502  3.145665  2.141990  3.371402  3.942052  1.086433
   H ( 10)  3.750049  3.415788  2.138488  2.879045  4.317669  1.085807
             H (  7)   H (  8)   H (  9)
   H (  8)  3.077719
   H (  9)  2.545453  1.765147
   H ( 10)  2.547928  1.758468  1.760032

 Applying Cartesian multipole field
    Component          Value
    ---------          -----
     (2,0,0)        1.00000E-11
     (0,2,0)        2.00000E-10
     (0,0,2)       -3.00000E-11
 Nucleus-field energy     =     0.0000000084 hartrees
 Requested basis set is 6-31G(d)
 There are 28 shells and 72 basis functions
 tim1(1): 
   0.0000000000000000     
 tim1(2): 
   0.0000000000000000     
 A cutoff of  1.0D-11 yielded    404 shell pairs
 There are      2734 function pairs
 Smallest overlap matrix eigenvalue = 3.68E-03
 Guess MOs from SCF MO coefficient file
 Reading MOs from coefficient file
 Reading MOs from coefficient file
 A restricted Hartree-Fock SCF calculation will be
 performed using Pulay DIIS extrapolation
 SCF converges when DIIS error is below 1.0E-08
 ---------------------------------------
  Cycle       Energy         DIIS Error
 ---------------------------------------
    1    -191.9093173667      3.84E-05
    2    -191.9097253776      6.58E-06
    3    -191.9097254148      2.25E-06
    4    -191.9097254185      7.55E-07
    5    -191.9097254190      2.60E-07
    6    -191.9097254191      8.35E-08
    7    -191.9097254191      2.04E-08
    8    -191.9097254191      6.46E-09 Convergence criterion met
 ---------------------------------------
 SCF time:  CPU 0.90 s  wall 0.83 s
 SCF   energy in the final basis set = -191.9097254191
 Total energy in the final basis set = -191.9097254191

 --------------------------------------------------------------

                    Orbital Energies (a.u.)
 --------------------------------------------------------------

 Alpha MOs
 -- Occupied --
-20.568 -11.284 -11.276 -11.222  -1.427  -1.012  -0.908  -0.819
 -0.703  -0.649  -0.589  -0.564  -0.526  -0.519  -0.440  -0.431
 -- Virtual --
  0.248   0.280   0.281   0.293   0.314   0.334   0.339   0.344
  0.428   0.508   0.672   0.731   0.774   0.791   0.836   0.877
  0.899   0.956   1.010   1.083   1.132   1.145   1.166   1.192
  1.209   1.222   1.252   1.292   1.326   1.515   1.655   1.716
  1.745   1.886   1.953   2.060   2.123   2.213   2.299   2.383
  2.469   2.491   2.510   2.636   2.652   2.686   2.753   2.884
  2.951   3.081   3.224   3.319   4.227   4.596   4.693   4.887
 --------------------------------------------------------------

          Ground-State Mulliken Net Atomic Charges

     Atom                 Charge (a.u.)
  ----------------------------------------
      1 H                     0.174180
      2 C                    -0.099797
      3 C                     0.103151
      4 O                    -0.554055
      5 H                     0.176562
      6 C                    -0.500937
      7 H                     0.180273
      8 H                     0.177887
      9 H                     0.164117
     10 H                     0.178619
  ----------------------------------------
  Sum of atomic charges =    -0.000000

 -----------------------------------------------------------------
                    Cartesian Multipole Moments
 -----------------------------------------------------------------
    Charge (ESU x 10^10)
                -0.0000
    Dipole Moment (Debye)
         X      -1.4648      Y      -1.5548      Z      -0.6979
       Tot       2.2472
    Quadrupole Moments (Debye-Ang)
        XX     -27.4987     XY      -4.0933     YY     -26.5126
        XZ      -2.2210     YZ      -1.0955     ZZ     -24.2544
    Octopole Moments (Debye-Ang^2)
       XXX     -78.3323    XXY     -12.6486    XYY     -28.7791
       YYY     -21.2275    XXZ       1.6919    XYZ      -2.1119
       YYZ       4.3583    XZZ     -25.5548    YZZ      -6.6578
       ZZZ      18.5438
    Hexadecapole Moments (Debye-Ang^3)
      XXXX    -231.2802   XXXY     -23.2154   XXYY     -58.6362
      XYYY     -17.7378   YYYY     -88.8758   XXXZ      25.8039
      XXYZ     -11.0422   XYYZ      10.7585   YYYZ     -23.5385
      XXZZ     -70.6434   XYZZ      -5.2615   YYZZ     -45.9592
      XZZZ      33.3064   YZZZ     -23.1472   ZZZZ    -191.4806
 -----------------------------------------------------------------
 ----------------------------------------------------------------
             Standard Nuclear Orientation (Angstroms)
    I     Atom           X                Y                Z
 ----------------------------------------------------------------
    1      H      -0.5396003454     1.1649003260     0.0872286366
    2      C       0.1798866951     0.5682133645     0.6252945742
    3      C       1.1760899588    -0.1925516770    -0.1100290962
    4      O       1.5080258155     1.0073321184     0.5338839151
    5      H      -0.1327205638     0.2470104325     1.6053914340
    6      C       1.2492222693    -0.1916255617    -1.6120028991
    7      H       1.5882490302    -1.0662337231     0.3716124236
    8      H       0.8139286891     0.7160013243    -2.0151045357
    9      H       0.7172428607    -1.0464886824    -2.0201005727
   10      H       2.2831855905    -0.2471579216    -1.9388238797
 ----------------------------------------------------------------
 Nuclear Repulsion Energy =   126.0777315582 hartrees
 There are       16 alpha and       16 beta electrons

                       Distance Matrix (Angstroms)
             H (  1)   C (  2)   C (  3)   O (  4)   H (  5)   C (  6)
   C (  2)  1.078523
   C (  3)  2.196629  1.453233
   O (  4)  2.101690  1.401833  1.401616
   H (  5)  1.820135  1.077722  2.202014  2.101967
   C (  6)  2.815570  2.593518  1.503753  2.471702  3.528993
   H (  7)  3.096220  2.172385  1.079432  2.081452  2.491698  2.194222
   H (  8)  2.540346  2.719478  2.141481  2.657816  3.771484  1.084324
   H (  9)  3.303140  3.145494  2.141990  3.371402  3.942052  1.086433
   H ( 10)  3.750589  3.415172  2.138488  2.879045  4.317669  1.085807
             H (  7)   H (  8)   H (  9)
   H (  8)  3.077719
   H (  9)  2.545453  1.765147
   H ( 10)  2.547928  1.758468  1.760032

 Applying Cartesian multipole field
    Component          Value
    ---------          -----
     (2,0,0)        1.00000E-11
     (0,2,0)        2.00000E-10
     (0,0,2)       -3.00000E-11
 Nucleus-field energy     =     0.0000000084 hartrees
 Requested basis set is 6-31G(d)
 There are 28 shells and 72 basis functions
 tim1(1): 
   0.0000000000000000     
 tim1(2): 
   0.0000000000000000     
 A cutoff of  1.0D-11 yielded    404 shell pairs
 There are      2734 function pairs
 Smallest overlap matrix eigenvalue = 3.68E-03
 Guess MOs from SCF MO coefficient file
 Reading MOs from coefficient file
 Reading MOs from coefficient file
 A restricted Hartree-Fock SCF calculation will be
 performed using Pulay DIIS extrapolation
 SCF converges when DIIS error is below 1.0E-08
 ---------------------------------------
  Cycle       Energy         DIIS Error
 ---------------------------------------
    1    -191.9102362012      7.94E-05
    2    -191.9097234753      1.16E-05
    3    -191.9097235661      5.08E-06
    4    -191.9097235805      1.35E-06
    5    -191.9097235823      5.19E-07
    6    -191.9097235825      1.36E-07
    7    -191.9097235826      4.28E-08
    8    -191.9097235826      9.34E-09 Convergence criterion met
 ---------------------------------------
 SCF time:  CPU 0.90 s  wall 0.83 s
 SCF   energy in the final basis set = -191.9097235826
 Total energy in the final basis set = -191.9097235826

 --------------------------------------------------------------

                    Orbital Energies (a.u.)
 --------------------------------------------------------------

 Alpha MOs
 -- Occupied --
-20.568 -11.284 -11.276 -11.222  -1.427  -1.012  -0.908  -0.819
 -0.703  -0.649  -0.589  -0.565  -0.526  -0.519  -0.440  -0.431
 -- Virtual --
  0.248   0.280   0.281   0.293   0.314   0.334   0.339   0.344
  0.428   0.508   0.672   0.731   0.774   0.791   0.837   0.877
  0.899   0.956   1.010   1.083   1.132   1.145   1.166   1.192
  1.209   1.222   1.251   1.292   1.326   1.515   1.656   1.716
  1.745   1.886   1.953   2.060   2.123   2.213   2.299   2.384
  2.470   2.491   2.510   2.637   2.652   2.686   2.753   2.884
  2.951   3.082   3.224   3.319   4.228   4.596   4.693   4.887
 --------------------------------------------------------------

          Ground-State Mulliken Net Atomic Charges

     Atom                 Charge (a.u.)
  ----------------------------------------
      1 H                     0.173946
      2 C                    -0.099515
      3 C                     0.102961
      4 O                    -0.553685
      5 H                     0.176279
      6 C                    -0.500956
      7 H                     0.180313
      8 H                     0.177916
      9 H                     0.164126
     10 H                     0.178617
  ----------------------------------------
  Sum of atomic charges =     0.000000

 -----------------------------------------------------------------
                    Cartesian Multipole Moments
 -----------------------------------------------------------------
    Charge (ESU x 10^10)
                -0.0000
    Dipole Moment (Debye)
         X      -1.4631      Y      -1.5543      Z      -0.6980
       Tot       2.2458
    Quadrupole Moments (Debye-Ang)
        XX     -27.4971     XY      -4.0907     YY     -26.5102
        XZ      -2.2202     YZ      -1.0930     ZZ     -24.2560
    Octopole Moments (Debye-Ang^2)
       XXX     -78.3450    XXY     -12.6464    XYY     -28.7796
       YYY     -21.2248    XXZ       1.6935    XYZ      -2.1115
       YYZ       4.3610    XZZ     -25.5572    YZZ      -6.6558
       ZZZ      18.5335
    Hexadecapole Moments (Debye-Ang^3)
      XXXX    -231.2887   XXXY     -23.2198   XXYY     -58.6339
      XYYY     -17.7396   YYYY     -88.8681   XXXZ      25.7985
      XXYZ     -11.0411   XYYZ      10.7564   YYYZ     -23.5345
      XXZZ     -70.6423   XYZZ      -5.2620   YYZZ     -45.9563
      XZZZ      33.2997   YZZZ     -23.1465   ZZZZ    -191.4968
 -----------------------------------------------------------------
 ----------------------------------------------------------------
             Standard Nuclear Orientation (Angstroms)
    I     Atom           X                Y                Z
 ----------------------------------------------------------------
    1      H      -0.5396003454     1.1649003260     0.0872286366
    2      C       0.1778866951     0.5682133645     0.6252945742
    3      C       1.1760899588    -0.1925516770    -0.1100290962
    4      O       1.5080258155     1.0073321184     0.5338839151
    5      H      -0.1327205638     0.2470104325     1.6053914340
    6      C       1.2492222693    -0.1916255617    -1.6120028991
    7      H       1.5882490302    -1.0662337231     0.3716124236
    8      H       0.8139286891     0.7160013243    -2.0151045357
    9      H       0.7172428607    -1.0464886824    -2.0201005727
   10      H       2.2831855905    -0.2471579216    -1.9388238797
 ----------------------------------------------------------------
 Nuclear Repulsion Energy =   126.0422795475 hartrees
 There are       16 alpha and       16 beta electrons

                       Distance Matrix (Angstroms)
             H (  1)   C (  2)   C (  3)   O (  4)   H (  5)   C (  6)
   C (  2)  1.077190
   C (  3)  2.196629  1.454604
   O (  4)  2.101690  1.403728  1.401616
   H (  5)  1.820135  1.077143  2.202014  2.101967
   C (  6)  2.815570  2.594343  1.503753  2.471702  3.528993
   H (  7)  3.096220  2.173682  1.079432  2.081452  2.491698  2.194222
   H (  8)  2.540346  2.719945  2.141481  2.657816  3.771484  1.084324
   H (  9)  3.303140  3.145836  2.141990  3.371402  3.942052  1.086433
   H ( 10)  3.750589  3.416404  2.138488  2.879045  4.317669  1.085807
             H (  7)   H (  8)   H (  9)
   H (  8)  3.077719
   H (  9)  2.545453  1.765147
   H ( 10)  2.547928  1.758468  1.760032

 Applying Cartesian multipole field
    Component          Value
    ---------          -----
     (2,0,0)        1.00000E-11
     (0,2,0)        2.00000E-10
     (0,0,2)       -3.00000E-11
 Nucleus-field energy     =     0.0000000084 hartrees
 Requested basis set is 6-31G(d)
 There are 28 shells and 72 basis functions
 tim1(1): 
   0.0000000000000000     
 tim1(2): 
   0.0000000000000000     
 A cutoff of  1.0D-11 yielded    404 shell pairs
 There are      2734 function pairs
 Smallest overlap matrix eigenvalue = 3.69E-03
 Guess MOs from SCF MO coefficient file
 Reading MOs from coefficient file
 Reading MOs from coefficient file
 A restricted Hartree-Fock SCF calculation will be
 performed using Pulay DIIS extrapolation
 SCF converges when DIIS error is below 1.0E-08
 ---------------------------------------
  Cycle       Energy         DIIS Error
 ---------------------------------------
    1    -191.9091119689      1.66E-04
    2    -191.9097267215      2.33E-05
    3    -191.9097271048      1.03E-05
    4    -191.9097271626      2.98E-06
    5    -191.9097271707      1.00E-06
    6    -191.9097271717      2.79E-07
    7    -191.9097271718      8.78E-08
    8    -191.9097271718      2.05E-08
    9    -191.9097271718      5.93E-09 Convergence criterion met
 ---------------------------------------
 SCF time:  CPU 1.02 s  wall 0.93 s
 SCF   energy in the final basis set = -191.9097271718
 Total energy in the final basis set = -191.9097271718

 --------------------------------------------------------------

                    Orbital Energies (a.u.)
 --------------------------------------------------------------

 Alpha MOs
 -- Occupied --
-20.568 -11.284 -11.276 -11.222  -1.426  -1.012  -0.908  -0.819
 -0.703  -0.649  -0.589  -0.564  -0.526  -0.519  -0.440  -0.430
 -- Virtual --
  0.248   0.280   0.281   0.293   0.314   0.334   0.339   0.344
  0.428   0.508   0.672   0.730   0.774   0.791   0.836   0.877
  0.899   0.955   1.010   1.084   1.132   1.145   1.166   1.192
  1.209   1.222   1.252   1.292   1.326   1.514   1.655   1.716
  1.745   1.886   1.952   2.060   2.123   2.213   2.299   2.384
  2.468   2.491   2.509   2.636   2.652   2.686   2.753   2.883
  2.951   3.081   3.224   3.318   4.227   4.596   4.693   4.887
 --------------------------------------------------------------

          Ground-State Mulliken Net Atomic Charges

     Atom                 Charge (a.u.)
  ----------------------------------------
      1 H                     0.174530
      2 C                    -0.099986
      3 C                     0.103296
      4 O                    -0.554480
      5 H                     0.176711
      6 C                    -0.500910
      7 H                     0.180250
      8 H                     0.177869
      9 H                     0.164107
     10 H                     0.178612
  ----------------------------------------
  Sum of atomic charges =    -0.000000

 -----------------------------------------------------------------
                    Cartesian Multipole Moments
 -----------------------------------------------------------------
    Charge (ESU x 10^10)
                 0.0000
    Dipole Moment (Debye)
         X      -1.4669      Y      -1.5545      Z      -0.6981
       Tot       2.2485
    Quadrupole Moments (Debye-Ang)
        XX     -27.4983     XY      -4.0973     YY     -26.5121
        XZ      -2.2227     YZ      -1.0964     ZZ     -24.2548
    Octopole Moments (Debye-Ang^2)
       XXX     -78.3208    XXY     -12.6498    XYY     -28.7800
       YYY     -21.2241    XXZ       1.6902    XYZ      -2.1141
       YYZ       4.3568    XZZ     -25.5534    YZZ      -6.6585
       ZZZ      18.5440
    Hexadecapole Moments (Debye-Ang^3)
      XXXX    -231.2663   XXXY     -23.2152   XXYY     -58.6355
      XYYY     -17.7401   YYYY     -88.8689   XXXZ      25.8119
      XXYZ     -11.0440   XYYZ      10.7594   YYYZ     -23.5433
      XXZZ     -70.6452   XYZZ      -5.2619   YYZZ     -45.9606
      XZZZ      33.3155   YZZZ     -23.1531   ZZZZ    -191.4781
 -----------------------------------------------------------------
 ----------------------------------------------------------------
             Standard Nuclear Orientation (Angstroms)
    I     Atom           X                Y                Z
 ----------------------------------------------------------------
    1      H      -0.5396003454     1.1649003260     0.0872286366
    2      C       0.1788866951     0.5692133645     0.6252945742
    3      C       1.1760899588    -0.1925516770    -0.1100290962
    4      O       1.5080258155     1.0073321184     0.5338839151
    5      H      -0.1327205638     0.2470104325     1.6053914340
    6      C       1.2492222693    -0.1916255617    -1.6120028991
    7      H       1.5882490302    -1.0662337231     0.3716124236
    8      H       0.8139286891     0.7160013243    -2.0151045357
    9      H       0.7172428607    -1.0464886824    -2.0201005727
   10      H       2.2831855905    -0.2471579216    -1.9388238797
 ----------------------------------------------------------------
 Nuclear Repulsion Energy =   126.0584733058 hartrees
 There are       16 alpha and       16 beta electrons

                       Distance Matrix (Angstroms)
             H (  1)   C (  2)   C (  3)   O (  4)   H (  5)   C (  6)
   C (  2)  1.077303
   C (  3)  2.196629  1.454442
   O (  4)  2.101690  1.402467  1.401616
   H (  5)  1.820135  1.077731  2.202014  2.101967
   C (  6)  2.815570  2.594223  1.503753  2.471702  3.528993
   H (  7)  3.096220  2.173786  1.079432  2.081452  2.491698  2.194222
   H (  8)  2.540346  2.719657  2.141481  2.657816  3.771484  1.084324
   H (  9)  3.303140  3.146178  2.141990  3.371402  3.942052  1.086433
   H ( 10)  3.750589  3.416027  2.138488  2.879045  4.317669  1.085807
             H (  7)   H (  8)   H (  9)
   H (  8)  3.077719
   H (  9)  2.545453  1.765147
   H ( 10)  2.547928  1.758468  1.760032

 Applying Cartesian multipole field
    Component          Value
    ---------          -----
     (2,0,0)        1.00000E-11
     (0,2,0)        2.00000E-10
     (0,0,2)       -3.00000E-11
 Nucleus-field energy     =     0.0000000084 hartrees
 Requested basis set is 6-31G(d)
 There are 28 shells and 72 basis functions
 tim1(1): 
   0.0000000000000000     
 tim1(2): 
   0.0000000000000000     
 A cutoff of  1.0D-11 yielded    404 shell pairs
 There are      2734 function pairs
 Smallest overlap matrix eigenvalue = 3.69E-03
 Guess MOs from SCF MO coefficient file
 Reading MOs from coefficient file
 Reading MOs from coefficient file
 A restricted Hartree-Fock SCF calculation will be
 performed using Pulay DIIS extrapolation
 SCF converges when DIIS error is below 1.0E-08
 ---------------------------------------
  Cycle       Energy         DIIS Error
 ---------------------------------------
    1    -191.9100461521      9.81E-05
    2    -191.9097237169      1.51E-05
    3    -191.9097238672      7.37E-06
    4    -191.9097238964      2.22E-06
    5    -191.9097239008      5.72E-07
    6    -191.9097239013      1.69E-07
    7    -191.9097239013      6.34E-08
    8    -191.9097239013      1.23E-08
    9    -191.9097239013      3.37E-09 Convergence criterion met
 ---------------------------------------
 SCF time:  CPU 0.98 s  wall 0.90 s
 SCF   energy in the final basis set = -191.9097239013
 Total energy in the final basis set = -191.9097239013

 --------------------------------------------------------------

                    Orbital Energies (a.u.)
 --------------------------------------------------------------

 Alpha MOs
 -- Occupied --
-20.568 -11.284 -11.276 -11.222  -1.427  -1.012  -0.908  -0.819
 -0.703  -0.649  -0.589  -0.565  -0.526  -0.519  -0.440  -0.430
 -- Virtual --
  0.248   0.280   0.281   0.293   0.314   0.334   0.339   0.344
  0.428   0.508   0.672   0.731   0.774   0.791   0.836   0.877
  0.899   0.955   1.010   1.083   1.132   1.145   1.166   1.192
  1.209   1.222   1.252   1.292   1.326   1.514   1.655   1.716
  1.745   1.886   1.953   2.060   2.123   2.213   2.299   2.383
  2.469   2.491   2.509   2.637   2.652   2.686   2.753   2.884
  2.951   3.081   3.224   3.319   4.228   4.596   4.693   4.887
 --------------------------------------------------------------

          Ground-State Mulliken Net Atomic Charges

     Atom                 Charge (a.u.)
  ----------------------------------------
      1 H                     0.174281
      2 C                    -0.099589
      3 C                     0.102909
      4 O                    -0.553927
      5 H                     0.176346
      6 C                    -0.500900
      7 H                     0.180300
      8 H                     0.177869
      9 H                     0.164119
     10 H                     0.178591
  ----------------------------------------
  Sum of atomic charges =    -0.000000

 -----------------------------------------------------------------
                    Cartesian Multipole Moments
 -----------------------------------------------------------------
    Charge (ESU x 10^10)
                 0.0000
    Dipole Moment (Debye)
         X      -1.4645      Y      -1.5530      Z      -0.6984
       Tot       2.2460
    Quadrupole Moments (Debye-Ang)
        XX     -27.4966     XY      -4.0937     YY     -26.5093
        XZ      -2.2195     YZ      -1.0947     ZZ     -24.2581
    Octopole Moments (Debye-Ang^2)
       XXX     -78.3333    XXY     -12.6531    XYY     -28.7784
       YYY     -21.2364    XXZ       1.6943    XYZ      -2.1118
       YYZ       4.3590    XZZ     -25.5557    YZZ      -6.6631
       ZZZ      18.5353
    Hexadecapole Moments (Debye-Ang^3)
      XXXX    -231.2751   XXXY     -23.2231   XXYY     -58.6392
      XYYY     -17.7423   YYYY     -88.8964   XXXZ      25.8131
      XXYZ     -11.0458   XYYZ      10.7594   YYYZ     -23.5474
      XXZZ     -70.6476   XYZZ      -5.2615   YYZZ     -45.9651
      XZZZ      33.3145   YZZZ     -23.1623   ZZZZ    -191.5067
 -----------------------------------------------------------------
 ----------------------------------------------------------------
             Standard Nuclear Orientation (Angstroms)
    I     Atom           X                Y                Z
 ----------------------------------------------------------------
    1      H      -0.5396003454     1.1649003260     0.0872286366
    2      C       0.1788866951     0.5672133645     0.6252945742
    3      C       1.1760899588    -0.1925516770    -0.1100290962
    4      O       1.5080258155     1.0073321184     0.5338839151
    5      H      -0.1327205638     0.2470104325     1.6053914340
    6      C       1.2492222693    -0.1916255617    -1.6120028991
    7      H       1.5882490302    -1.0662337231     0.3716124236
    8      H       0.8139286891     0.7160013243    -2.0151045357
    9      H       0.7172428607    -1.0464886824    -2.0201005727
   10      H       2.2831855905    -0.2471579216    -1.9388238797
 ----------------------------------------------------------------
 Nuclear Repulsion Energy =   126.0615108847 hartrees
 There are       16 alpha and       16 beta electrons

                       Distance Matrix (Angstroms)
             H (  1)   C (  2)   C (  3)   O (  4)   H (  5)   C (  6)
   C (  2)  1.078410
   C (  3)  2.196629  1.453395
   O (  4)  2.101690  1.403093  1.401616
   H (  5)  1.820135  1.077135  2.202014  2.101967
   C (  6)  2.815570  2.593637  1.503753  2.471702  3.528993
   H (  7)  3.096220  2.172281  1.079432  2.081452  2.491698  2.194222
   H (  8)  2.540346  2.719765  2.141481  2.657816  3.771484  1.084324
   H (  9)  3.303140  3.145151  2.141990  3.371402  3.942052  1.086433
   H ( 10)  3.750589  3.415549  2.138488  2.879045  4.317669  1.085807
             H (  7)   H (  8)   H (  9)
   H (  8)  3.077719
   H (  9)  2.545453  1.765147
   H ( 10)  2.547928  1.758468  1.760032

 Applying Cartesian multipole field
    Component          Value
    ---------          -----
     (2,0,0)        1.00000E-11
     (0,2,0)        2.00000E-10
     (0,0,2)       -3.00000E-11
 Nucleus-field energy     =     0.0000000084 hartrees
 Requested basis set is 6-31G(d)
 There are 28 shells and 72 basis functions
 tim1(1): 
   0.0000000000000000     
 tim1(2): 
   0.0000000000000000     
 A cutoff of  1.0D-11 yielded    404 shell pairs
 There are      2734 function pairs
 Smallest overlap matrix eigenvalue = 3.68E-03
 Guess MOs from SCF MO coefficient file
 Reading MOs from coefficient file
 Reading MOs from coefficient file
 A restricted Hartree-Fock SCF calculation will be
 performed using Pulay DIIS extrapolation
 SCF converges when DIIS error is below 1.0E-08
 ---------------------------------------
  Cycle       Energy         DIIS Error
 ---------------------------------------
    1    -191.9096960753      1.10E-04
    2    -191.9097274471      1.77E-05
    3    -191.9097277010      7.57E-06
    4    -191.9097277393      2.92E-06
    5    -191.9097277472      8.51E-07
    6    -191.9097277482      2.77E-07
    7    -191.9097277483      1.02E-07
    8    -191.9097277484      2.29E-08
    9    -191.9097277484      5.92E-09 Convergence criterion met
 ---------------------------------------
 SCF time:  CPU 0.90 s  wall 0.85 s
 SCF   energy in the final basis set = -191.9097277484
 Total energy in the final basis set = -191.9097277484

 --------------------------------------------------------------

                    Orbital Energies (a.u.)
 --------------------------------------------------------------

 Alpha MOs
 -- Occupied --
-20.568 -11.284 -11.276 -11.222  -1.427  -1.012  -0.908  -0.819
 -0.703  -0.649  -0.589  -0.564  -0.526  -0.519  -0.440  -0.431
 -- Virtual --
  0.248   0.280   0.281   0.293   0.314   0.334   0.339   0.344
  0.428   0.508   0.672   0.730   0.774   0.791   0.836   0.877
  0.899   0.956   1.010   1.083   1.132   1.145   1.166   1.192
  1.209   1.223   1.252   1.292   1.326   1.515   1.655   1.716
  1.745   1.886   1.952   2.060   2.123   2.213   2.299   2.384
  2.469   2.491   2.510   2.636   2.652   2.686   2.754   2.884
  2.951   3.082   3.224   3.319   4.227   4.596   4.693   4.887
 --------------------------------------------------------------

          Ground-State Mulliken Net Atomic Charges

     Atom                 Charge (a.u.)
  ----------------------------------------
      1 H                     0.174196
      2 C                    -0.099911
      3 C                     0.103347
      4 O                    -0.554239
      5 H                     0.176644
      6 C                    -0.500966
      7 H                     0.180263
      8 H                     0.177915
      9 H                     0.164113
     10 H                     0.178637
  ----------------------------------------
  Sum of atomic charges =    -0.000000

 -----------------------------------------------------------------
                    Cartesian Multipole Moments
 -----------------------------------------------------------------
    Charge (ESU x 10^10)
                 0.0000
    Dipole Moment (Debye)
         X      -1.4655      Y      -1.5558      Z      -0.6977
       Tot       2.2483
    Quadrupole Moments (Debye-Ang)
        XX     -27.4988     XY      -4.0944     YY     -26.5130
        XZ      -2.2234     YZ      -1.0948     ZZ     -24.2527
    Octopole Moments (Debye-Ang^2)
       XXX     -78.3326    XXY     -12.6431    XYY     -28.7812
       YYY     -21.2124    XXZ       1.6893    XYZ      -2.1138
       YYZ       4.3587    XZZ     -25.5548    YZZ      -6.6513
       ZZZ      18.5422
    Hexadecapole Moments (Debye-Ang^3)
      XXXX    -231.2799   XXXY     -23.2119   XXYY     -58.6301
      XYYY     -17.7374   YYYY     -88.8407   XXXZ      25.7972
      XXYZ     -11.0393   XYYZ      10.7564   YYYZ     -23.5304
      XXZZ     -70.6400   XYZZ      -5.2624   YYZZ     -45.9519
      XZZZ      33.3007   YZZZ     -23.1373   ZZZZ    -191.4682
 -----------------------------------------------------------------
 ----------------------------------------------------------------
             Standard Nuclear Orientation (Angstroms)
    I     Atom           X                Y                Z
 ----------------------------------------------------------------
    1      H      -0.5396003454     1.1649003260     0.0872286366
    2      C       0.1788866951     0.5682133645     0.6262945742
    3      C       1.1760899588    -0.1925516770    -0.1100290962
    4      O       1.5080258155     1.0073321184     0.5338839151
    5      H      -0.1327205638     0.2470104325     1.6053914340
    6      C       1.2492222693    -0.1916255617    -1.6120028991
    7      H       1.5882490302    -1.0662337231     0.3716124236
    8      H       0.8139286891     0.7160013243    -2.0151045357
    9      H       0.7172428607    -1.0464886824    -2.0201005727
   10      H       2.2831855905    -0.2471579216    -1.9388238797
 ----------------------------------------------------------------
 Nuclear Repulsion Energy =   126.0523077309 hartrees
 There are       16 alpha and       16 beta electrons

                       Distance Matrix (Angstroms)
             H (  1)   C (  2)   C (  3)   O (  4)   H (  5)   C (  6)
   C (  2)  1.078356
   C (  3)  2.196629  1.454424
   O (  4)  2.101690  1.402846  1.401616
   H (  5)  1.820135  1.076523  2.202014  2.101967
   C (  6)  2.815570  2.594793  1.503753  2.471702  3.528993
   H (  7)  3.096220  2.173150  1.079432  2.081452  2.491698  2.194222
   H (  8)  2.540346  2.720682  2.141481  2.657816  3.771484  1.084324
   H (  9)  3.303140  3.146506  2.141990  3.371402  3.942052  1.086433
   H ( 10)  3.750589  3.416539  2.138488  2.879045  4.317669  1.085807
             H (  7)   H (  8)   H (  9)
   H (  8)  3.077719
   H (  9)  2.545453  1.765147
   H ( 10)  2.547928  1.758468  1.760032

 Applying Cartesian multipole field
    Component          Value
    ---------          -----
     (2,0,0)        1.00000E-11
     (0,2,0)        2.00000E-10
     (0,0,2)       -3.00000E-11
 Nucleus-field energy     =     0.0000000084 hartrees
 Requested basis set is 6-31G(d)
 There are 28 shells and 72 basis functions
 tim1(1): 
   0.0000000000000000     
 tim1(2): 
   0.0000000000000000     
 A cutoff of  1.0D-11 yielded    404 shell pairs
 There are      2734 function pairs
 Smallest overlap matrix eigenvalue = 3.69E-03
 Guess MOs from SCF MO coefficient file
 Reading MOs from coefficient file
 Reading MOs from coefficient file
 A restricted Hartree-Fock SCF calculation will be
 performed using Pulay DIIS extrapolation
 SCF converges when DIIS error is below 1.0E-08
 ---------------------------------------
  Cycle       Energy         DIIS Error
 ---------------------------------------
    1    -191.9096682669      8.20E-05
    2    -191.9097244320      1.25E-05
    3    -191.9097245558      5.49E-06
    4    -191.9097245755      1.84E-06
    5    -191.9097245787      5.73E-07
    6    -191.9097245791      1.83E-07
    7    -191.9097245791      5.77E-08
    8    -191.9097245791      1.36E-08
    9    -191.9097245791      4.55E-09 Convergence criterion met
 ---------------------------------------
 SCF time:  CPU 0.95 s  wall 0.88 s
 SCF   energy in the final basis set = -191.9097245791
 Total energy in the final basis set = -191.9097245791

 --------------------------------------------------------------

                    Orbital Energies (a.u.)
 --------------------------------------------------------------

 Alpha MOs
 -- Occupied --
-20.568 -11.284 -11.276 -11.222  -1.427  -1.012  -0.908  -0.819
 -0.703  -0.649  -0.590  -0.565  -0.526  -0.519  -0.440  -0.430
 -- Virtual --
  0.248   0.281   0.281   0.293   0.314   0.334   0.339   0.344
  0.428   0.508   0.672   0.730   0.774   0.791   0.836   0.877
  0.899   0.955   1.010   1.083   1.132   1.145   1.166   1.192
  1.209   1.222   1.251   1.292   1.326   1.515   1.655   1.716
  1.745   1.886   1.953   2.060   2.123   2.213   2.299   2.383
  2.469   2.491   2.509   2.636   2.652   2.686   2.753   2.884
  2.951   3.081   3.224   3.319   4.227   4.596   4.693   4.887
 --------------------------------------------------------------

          Ground-State Mulliken Net Atomic Charges

     Atom                 Charge (a.u.)
  ----------------------------------------
      1 H                     0.174111
      2 C                    -0.099714
      3 C                     0.103053
      4 O                    -0.554096
      5 H                     0.176683
      6 C                    -0.500915
      7 H                     0.180225
      8 H                     0.177901
      9 H                     0.164121
     10 H                     0.178631
  ----------------------------------------
  Sum of atomic charges =    -0.000000

 -----------------------------------------------------------------
                    Cartesian Multipole Moments
 -----------------------------------------------------------------
    Charge (ESU x 10^10)
                 0.0000
    Dipole Moment (Debye)
         X      -1.4647      Y      -1.5547      Z      -0.6965
       Tot       2.2467
    Quadrupole Moments (Debye-Ang)
        XX     -27.4985     XY      -4.0925     YY     -26.5133
        XZ      -2.2228     YZ      -1.0944     ZZ     -24.2505
    Octopole Moments (Debye-Ang^2)
       XXX     -78.3348    XXY     -12.6476    XYY     -28.7794
       YYY     -21.2281    XXZ       1.6849    XYZ      -2.1120
       YYZ       4.3539    XZZ     -25.5540    YZZ      -6.6565
       ZZZ      18.5311
    Hexadecapole Moments (Debye-Ang^3)
      XXXX    -231.2860   XXXY     -23.2130   XXYY     -58.6379
      XYYY     -17.7361   YYYY     -88.8792   XXXZ      25.7934
      XXYZ     -11.0458   XYYZ      10.7565   YYYZ     -23.5483
      XXZZ     -70.6445   XYZZ      -5.2615   YYZZ     -45.9625
      XZZZ      33.2999   YZZZ     -23.1553   ZZZZ    -191.4993
 -----------------------------------------------------------------
 ----------------------------------------------------------------
             Standard Nuclear Orientation (Angstroms)
    I     Atom           X                Y                Z
 ----------------------------------------------------------------
    1      H      -0.5396003454     1.1649003260     0.0872286366
    2      C       0.1788866951     0.5682133645     0.6242945742
    3      C       1.1760899588    -0.1925516770    -0.1100290962
    4      O       1.5080258155     1.0073321184     0.5338839151
    5      H      -0.1327205638     0.2470104325     1.6053914340
    6      C       1.2492222693    -0.1916255617    -1.6120028991
    7      H       1.5882490302    -1.0662337231     0.3716124236
    8      H       0.8139286891     0.7160013243    -2.0151045357
    9      H       0.7172428607    -1.0464886824    -2.0201005727
   10      H       2.2831855905    -0.2471579216    -1.9388238797
 ----------------------------------------------------------------
 Nuclear Repulsion Energy =   126.0676810706 hartrees
 There are       16 alpha and       16 beta electrons

                       Distance Matrix (Angstroms)
             H (  1)   C (  2)   C (  3)   O (  4)   H (  5)   C (  6)
   C (  2)  1.077357
   C (  3)  2.196629  1.453413
   O (  4)  2.101690  1.402715  1.401616
   H (  5)  1.820135  1.078342  2.202014  2.101967
   C (  6)  2.815570  2.593068  1.503753  2.471702  3.528993
   H (  7)  3.096220  2.172917  1.079432  2.081452  2.491698  2.194222
   H (  8)  2.540346  2.718740  2.141481  2.657816  3.771484  1.084324
   H (  9)  3.303140  3.144824  2.141990  3.371402  3.942052  1.086433
   H ( 10)  3.750589  3.415037  2.138488  2.879045  4.317669  1.085807
             H (  7)   H (  8)   H (  9)
   H (  8)  3.077719
   H (  9)  2.545453  1.765147
   H ( 10)  2.547928  1.758468  1.760032

 Applying Cartesian multipole field
    Component          Value
    ---------          -----
     (2,0,0)        1.00000E-11
     (0,2,0)        2.00000E-10
     (0,0,2)       -3.00000E-11
 Nucleus-field energy     =     0.0000000084 hartrees
 Requested basis set is 6-31G(d)
 There are 28 shells and 72 basis functions
 tim1(1): 
   0.0000000000000000     
 tim1(2): 
   0.0000000000000000     
 A cutoff of  1.0D-11 yielded    404 shell pairs
 There are      2734 function pairs
 Smallest overlap matrix eigenvalue = 3.68E-03
 Guess MOs from SCF MO coefficient file
 Reading MOs from coefficient file
 Reading MOs from coefficient file
 A restricted Hartree-Fock SCF calculation will be
 performed using Pulay DIIS extrapolation
 SCF converges when DIIS error is below 1.0E-08
 ---------------------------------------
  Cycle       Energy         DIIS Error
 ---------------------------------------
    1    -191.9098694696      1.14E-04
    2    -191.9097258537      1.82E-05
    3    -191.9097261595      6.06E-06
    4    -191.9097261931      2.31E-06
    5    -191.9097262004      8.73E-07
    6    -191.9097262015      3.29E-07
    7    -191.9097262016      1.23E-07
    8    -191.9097262016      2.92E-08
    9    -191.9097262016      6.70E-09 Convergence criterion met
 ---------------------------------------
 SCF time:  CPU 0.99 s  wall 0.91 s
 SCF   energy in the final basis set = -191.9097262016
 Total energy in the final basis set = -191.9097262016

 --------------------------------------------------------------

                    Orbital Energies (a.u.)
 --------------------------------------------------------------

 Alpha MOs
 -- Occupied --
-20.568 -11.284 -11.276 -11.222  -1.427  -1.012  -0.908  -0.819
 -0.703  -0.649  -0.589  -0.564  -0.526  -0.519  -0.440  -0.431
 -- Virtual --
  0.248   0.280   0.281   0.293   0.314   0.334   0.339   0.344
  0.428   0.508   0.672   0.731   0.774   0.791   0.837   0.877
  0.899   0.955   1.010   1.083   1.132   1.145   1.166   1.192
  1.209   1.222   1.252   1.292   1.326   1.514   1.655   1.716
  1.745   1.886   1.952   2.060   2.123   2.213   2.299   2.384
  2.469   2.491   2.510   2.636   2.652   2.686   2.753   2.884
  2.951   3.082   3.224   3.319   4.227   4.596   4.693   4.887
 --------------------------------------------------------------

          Ground-State Mulliken Net Atomic Charges

     Atom                 Charge (a.u.)
  ----------------------------------------
      1 H                     0.174365
      2 C                    -0.099785
      3 C                     0.103204
      4 O                    -0.554071
      5 H                     0.176306
      6 C                    -0.500951
      7 H                     0.180338
      8 H                     0.177884
      9 H                     0.164111
     10 H                     0.178598
  ----------------------------------------
  Sum of atomic charges =     0.000000

 -----------------------------------------------------------------
                    Cartesian Multipole Moments
 -----------------------------------------------------------------
    Charge (ESU x 10^10)
                -0.0000
    Dipole Moment (Debye)
         X      -1.4653      Y      -1.5540      Z      -0.6996
       Tot       2.2476
    Quadrupole Moments (Debye-Ang)
        XX     -27.4969     XY      -4.0955     YY     -26.5091
        XZ      -2.2202     YZ      -1.0951     ZZ     -24.2603
    Octopole Moments (Debye-Ang^2)
       XXX     -78.3311    XXY     -12.6486    XYY     -28.7802
       YYY     -21.2208    XXZ       1.6988    XYZ      -2.1136
       YYZ       4.3638    XZZ     -25.5565    YZZ      -6.6579
       ZZZ      18.5464
    Hexadecapole Moments (Debye-Ang^3)
      XXXX    -231.2690   XXXY     -23.2220   XXYY     -58.6315
      XYYY     -17.7436   YYYY     -88.8578   XXXZ      25.8170
      XXYZ     -11.0393   XYYZ      10.7593   YYYZ     -23.5295
      XXZZ     -70.6430   XYZZ      -5.2624   YYZZ     -45.9545
[...]
    6      C       1.2492222693    -0.1916255617    -1.6120028991
    7      H       1.5882490302    -1.0662337231     0.3716124236
    8      H       0.8139286891     0.7160013243    -2.0151045357
    9      H       0.7172428607    -1.0464886824    -2.0201005727
   10      H       2.2831855905    -0.2481579216    -1.9388238797
 ----------------------------------------------------------------
 Nuclear Repulsion Energy =   126.0595455235 hartrees
 There are       16 alpha and       16 beta electrons

                       Distance Matrix (Angstroms)
             H (  1)   C (  2)   C (  3)   O (  4)   H (  5)   C (  6)
   C (  2)  1.077856
   C (  3)  2.196629  1.453918
   O (  4)  2.101690  1.402780  1.401616
   H (  5)  1.820135  1.077432  2.202014  2.101967
   C (  6)  2.815570  2.593930  1.503753  2.471702  3.528993
   H (  7)  3.096220  2.173033  1.079432  2.081452  2.491698  2.194222
   H (  8)  2.540346  2.719711  2.141481  2.657816  3.771484  1.084324
   H (  9)  3.303140  3.145665  2.141990  3.371402  3.942052  1.086433
   H ( 10)  3.750966  3.416027  2.138514  2.879481  4.317784  1.085858
             H (  7)   H (  8)   H (  9)
   H (  8)  3.077719
   H (  9)  2.545453  1.765147
   H ( 10)  2.547607  1.759016  1.759578

 Applying Cartesian multipole field
    Component          Value
    ---------          -----
     (2,0,0)        1.00000E-11
     (0,2,0)        2.00000E-10
     (0,0,2)       -3.00000E-11
 Nucleus-field energy     =     0.0000000084 hartrees
 Requested basis set is 6-31G(d)
 There are 28 shells and 72 basis functions
 tim1(1): 
   0.0000000000000000     
 tim1(2): 
   0.0000000000000000     
 A cutoff of  1.0D-11 yielded    404 shell pairs
 There are      2734 function pairs
 Smallest overlap matrix eigenvalue = 3.68E-03
 Guess MOs from SCF MO coefficient file
 Reading MOs from coefficient file
 Reading MOs from coefficient file
 A restricted Hartree-Fock SCF calculation will be
 performed using Pulay DIIS extrapolation
 SCF converges when DIIS error is below 1.0E-08
 ---------------------------------------
  Cycle       Energy         DIIS Error
 ---------------------------------------
    1    -191.9096892380      1.59E-05
    2    -191.9097265038      3.45E-06
    3    -191.9097265189      8.76E-07
    4    -191.9097265199      2.71E-07
    5    -191.9097265200      9.76E-08
    6    -191.9097265200      1.91E-08
    7    -191.9097265200      5.04E-09 Convergence criterion met
 ---------------------------------------
 SCF time:  CPU 0.72 s  wall 0.68 s
 SCF   energy in the final basis set = -191.9097265200
 Total energy in the final basis set = -191.9097265200

 --------------------------------------------------------------

                    Orbital Energies (a.u.)
 --------------------------------------------------------------

 Alpha MOs
 -- Occupied --
-20.568 -11.284 -11.276 -11.222  -1.427  -1.012  -0.908  -0.819
 -0.703  -0.649  -0.589  -0.565  -0.526  -0.519  -0.440  -0.431
 -- Virtual --
  0.248   0.280   0.281   0.293   0.314   0.334   0.339   0.344
  0.428   0.508   0.672   0.731   0.774   0.791   0.836   0.877
  0.899   0.955   1.010   1.083   1.132   1.145   1.166   1.192
  1.209   1.222   1.252   1.292   1.326   1.514   1.655   1.716
  1.745   1.886   1.953   2.060   2.123   2.213   2.299   2.384
  2.469   2.491   2.510   2.636   2.652   2.686   2.753   2.884
  2.951   3.081   3.224   3.319   4.227   4.596   4.693   4.887
 --------------------------------------------------------------

          Ground-State Mulliken Net Atomic Charges

     Atom                 Charge (a.u.)
  ----------------------------------------
      1 H                     0.174235
      2 C                    -0.099762
      3 C                     0.103147
      4 O                    -0.554082
      5 H                     0.176498
      6 C                    -0.500924
      7 H                     0.180279
      8 H                     0.177912
      9 H                     0.164102
     10 H                     0.178596
  ----------------------------------------
  Sum of atomic charges =     0.000000

 -----------------------------------------------------------------
                    Cartesian Multipole Moments
 -----------------------------------------------------------------
    Charge (ESU x 10^10)
                 0.0000
    Dipole Moment (Debye)
         X      -1.4651      Y      -1.5547      Z      -0.6980
       Tot       2.2474
    Quadrupole Moments (Debye-Ang)
        XX     -27.4981     XY      -4.0959     YY     -26.5110
        XZ      -2.2213     YZ      -1.0940     ZZ     -24.2554
    Octopole Moments (Debye-Ang^2)
       XXX     -78.3342    XXY     -12.6523    XYY     -28.7789
       YYY     -21.2219    XXZ       1.6926    XYZ      -2.1088
       YYZ       4.3583    XZZ     -25.5558    YZZ      -6.6583
       ZZZ      18.5392
    Hexadecapole Moments (Debye-Ang^3)
      XXXX    -231.2819   XXXY     -23.2248   XXYY     -58.6329
      XYYY     -17.7356   YYYY     -88.8710   XXXZ      25.8079
      XXYZ     -11.0339   XYYZ      10.7560   YYYZ     -23.5438
      XXZZ     -70.6458   XYZZ      -5.2689   YYZZ     -45.9576
      XZZZ      33.3092   YZZZ     -23.1499   ZZZZ    -191.4888
 -----------------------------------------------------------------
 ----------------------------------------------------------------
             Standard Nuclear Orientation (Angstroms)
    I     Atom           X                Y                Z
 ----------------------------------------------------------------
    1      H      -0.5396003454     1.1649003260     0.0872286366
    2      C       0.1788866951     0.5682133645     0.6252945742
    3      C       1.1760899588    -0.1925516770    -0.1100290962
    4      O       1.5080258155     1.0073321184     0.5338839151
    5      H      -0.1327205638     0.2470104325     1.6053914340
    6      C       1.2492222693    -0.1916255617    -1.6120028991
    7      H       1.5882490302    -1.0662337231     0.3716124236
    8      H       0.8139286891     0.7160013243    -2.0151045357
    9      H       0.7172428607    -1.0464886824    -2.0201005727
   10      H       2.2831855905    -0.2471579216    -1.9378238797
 ----------------------------------------------------------------
 Nuclear Repulsion Energy =   126.0621461932 hartrees
 There are       16 alpha and       16 beta electrons

                       Distance Matrix (Angstroms)
             H (  1)   C (  2)   C (  3)   O (  4)   H (  5)   C (  6)
   C (  2)  1.077856
   C (  3)  2.196629  1.453918
   O (  4)  2.101690  1.402780  1.401616
   H (  5)  1.820135  1.077432  2.202014  2.101967
   C (  6)  2.815570  2.593930  1.503753  2.471702  3.528993
   H (  7)  3.096220  2.173033  1.079432  2.081452  2.491698  2.194222
   H (  8)  2.540346  2.719711  2.141481  2.657816  3.771484  1.084324
   H (  9)  3.303140  3.145665  2.141990  3.371402  3.942052  1.086433
   H ( 10)  3.750049  3.415037  2.137633  2.878186  4.316848  1.085506
             H (  7)   H (  8)   H (  9)
   H (  8)  3.077719
   H (  9)  2.545453  1.765147
   H ( 10)  2.547021  1.758512  1.760078

 Applying Cartesian multipole field
    Component          Value
    ---------          -----
     (2,0,0)        1.00000E-11
     (0,2,0)        2.00000E-10
     (0,0,2)       -3.00000E-11
 Nucleus-field energy     =     0.0000000084 hartrees
 Requested basis set is 6-31G(d)
 There are 28 shells and 72 basis functions
 tim1(1): 
   0.0000000000000000     
 tim1(2): 
   0.0000000000000000     
 A cutoff of  1.0D-11 yielded    404 shell pairs
 There are      2734 function pairs
 Smallest overlap matrix eigenvalue = 3.68E-03
 Guess MOs from SCF MO coefficient file
 Reading MOs from coefficient file
 Reading MOs from coefficient file
 A restricted Hartree-Fock SCF calculation will be
 performed using Pulay DIIS extrapolation
 SCF converges when DIIS error is below 1.0E-08
 ---------------------------------------
  Cycle       Energy         DIIS Error
 ---------------------------------------
    1    -191.9098483116      1.68E-05
    2    -191.9097262271      3.02E-06
    3    -191.9097262368      1.03E-06
    4    -191.9097262378      3.53E-07
    5    -191.9097262380      8.19E-08
    6    -191.9097262380      3.12E-08
    7    -191.9097262380      1.10E-08
    8    -191.9097262380      3.15E-09 Convergence criterion met
 ---------------------------------------
 SCF time:  CPU 0.84 s  wall 0.78 s
 SCF   energy in the final basis set = -191.9097262380
 Total energy in the final basis set = -191.9097262380

 --------------------------------------------------------------

                    Orbital Energies (a.u.)
 --------------------------------------------------------------

 Alpha MOs
 -- Occupied --
-20.568 -11.284 -11.276 -11.222  -1.427  -1.012  -0.908  -0.819
 -0.703  -0.649  -0.589  -0.565  -0.526  -0.519  -0.440  -0.431
 -- Virtual --
  0.248   0.280   0.281   0.293   0.314   0.334   0.339   0.344
  0.428   0.508   0.672   0.730   0.774   0.791   0.836   0.877
  0.899   0.955   1.010   1.083   1.132   1.145   1.167   1.192
  1.209   1.222   1.252   1.292   1.326   1.515   1.655   1.716
  1.745   1.886   1.953   2.060   2.123   2.213   2.299   2.384
  2.469   2.491   2.510   2.636   2.652   2.686   2.753   2.884
  2.951   3.081   3.224   3.319   4.227   4.596   4.693   4.887
 --------------------------------------------------------------

          Ground-State Mulliken Net Atomic Charges

     Atom                 Charge (a.u.)
  ----------------------------------------
      1 H                     0.174227
      2 C                    -0.099754
      3 C                     0.103069
      4 O                    -0.554092
      5 H                     0.176485
      6 C                    -0.500870
      7 H                     0.180275
      8 H                     0.177886
      9 H                     0.164113
     10 H                     0.178661
  ----------------------------------------
  Sum of atomic charges =     0.000000

 -----------------------------------------------------------------
                    Cartesian Multipole Moments
 -----------------------------------------------------------------
    Charge (ESU x 10^10)
                 0.0000
    Dipole Moment (Debye)
         X      -1.4647      Y      -1.5545      Z      -0.6981
       Tot       2.2471
    Quadrupole Moments (Debye-Ang)
        XX     -27.4962     XY      -4.0941     YY     -26.5109
        XZ      -2.2205     YZ      -1.0948     ZZ     -24.2568
    Octopole Moments (Debye-Ang^2)
       XXX     -78.3270    XXY     -12.6488    XYY     -28.7792
       YYY     -21.2250    XXZ       1.6921    XYZ      -2.1131
       YYZ       4.3571    XZZ     -25.5601    YZZ      -6.6570
       ZZZ      18.5400
    Hexadecapole Moments (Debye-Ang^3)
      XXXX    -231.2570   XXXY     -23.2195   XXYY     -58.6332
      XYYY     -17.7404   YYYY     -88.8683   XXXZ      25.7997
      XXYZ     -11.0426   XYYZ      10.7550   YYYZ     -23.5379
      XXZZ     -70.6511   XYZZ      -5.2608   YYZZ     -45.9542
      XZZZ      33.3172   YZZZ     -23.1506   ZZZZ    -191.4814
 -----------------------------------------------------------------
 ----------------------------------------------------------------
             Standard Nuclear Orientation (Angstroms)
    I     Atom           X                Y                Z
 ----------------------------------------------------------------
    1      H      -0.5396003454     1.1649003260     0.0872286366
    2      C       0.1788866951     0.5682133645     0.6252945742
    3      C       1.1760899588    -0.1925516770    -0.1100290962
    4      O       1.5080258155     1.0073321184     0.5338839151
    5      H      -0.1327205638     0.2470104325     1.6053914340
    6      C       1.2492222693    -0.1916255617    -1.6120028991
    7      H       1.5882490302    -1.0662337231     0.3716124236
    8      H       0.8139286891     0.7160013243    -2.0151045357
    9      H       0.7172428607    -1.0464886824    -2.0201005727
   10      H       2.2831855905    -0.2471579216    -1.9398238797
 ----------------------------------------------------------------
 Nuclear Repulsion Energy =   126.0578472169 hartrees
 There are       16 alpha and       16 beta electrons

                       Distance Matrix (Angstroms)
             H (  1)   C (  2)   C (  3)   O (  4)   H (  5)   C (  6)
   C (  2)  1.077856
   C (  3)  2.196629  1.453918
   O (  4)  2.101690  1.402780  1.401616
   H (  5)  1.820135  1.077432  2.202014  2.101967
   C (  6)  2.815570  2.593930  1.503753  2.471702  3.528993
   H (  7)  3.096220  2.173033  1.079432  2.081452  2.491698  2.194222
   H (  8)  2.540346  2.719711  2.141481  2.657816  3.771484  1.084324
   H (  9)  3.303140  3.145665  2.141990  3.371402  3.942052  1.086433
   H ( 10)  3.751129  3.416539  2.139344  2.879904  4.318490  1.086108
             H (  7)   H (  8)   H (  9)
   H (  8)  3.077719
   H (  9)  2.545453  1.765147
   H ( 10)  2.548835  1.758425  1.759986

 Applying Cartesian multipole field
    Component          Value
    ---------          -----
     (2,0,0)        1.00000E-11
     (0,2,0)        2.00000E-10
     (0,0,2)       -3.00000E-11
 Nucleus-field energy     =     0.0000000084 hartrees
 Requested basis set is 6-31G(d)
 There are 28 shells and 72 basis functions
 tim1(1): 
   0.0000000000000000     
 tim1(2): 
   0.0000000000000000     
 A cutoff of  1.0D-11 yielded    404 shell pairs
 There are      2734 function pairs
 Smallest overlap matrix eigenvalue = 3.68E-03
 Guess MOs from SCF MO coefficient file
 Reading MOs from coefficient file
 Reading MOs from coefficient file
 A restricted Hartree-Fock SCF calculation will be
 performed using Pulay DIIS extrapolation
 SCF converges when DIIS error is below 1.0E-08
 ---------------------------------------
  Cycle       Energy         DIIS Error
 ---------------------------------------
    1    -191.9095199559      2.68E-05
    2    -191.9097266555      4.74E-06
    3    -191.9097266775      1.73E-06
    4    -191.9097266802      5.94E-07
    5    -191.9097266806      1.70E-07
    6    -191.9097266807      6.58E-08
    7    -191.9097266807      1.82E-08
    8    -191.9097266807      5.11E-09 Convergence criterion met
 ---------------------------------------
 SCF time:  CPU 0.90 s  wall 0.83 s
 SCF   energy in the final basis set = -191.9097266807
 Total energy in the final basis set = -191.9097266807

 --------------------------------------------------------------

                    Orbital Energies (a.u.)
 --------------------------------------------------------------

 Alpha MOs
 -- Occupied --
-20.568 -11.284 -11.276 -11.222  -1.427  -1.012  -0.908  -0.819
 -0.703  -0.649  -0.589  -0.564  -0.526  -0.519  -0.440  -0.431
 -- Virtual --
  0.248   0.280   0.281   0.293   0.314   0.334   0.339   0.344
  0.428   0.508   0.672   0.731   0.774   0.791   0.836   0.877
  0.899   0.955   1.010   1.083   1.132   1.145   1.166   1.192
  1.209   1.222   1.252   1.292   1.326   1.515   1.655   1.716
  1.745   1.886   1.953   2.060   2.123   2.213   2.299   2.384
  2.469   2.491   2.509   2.636   2.652   2.686   2.753   2.884
  2.951   3.081   3.224   3.319   4.227   4.596   4.693   4.887
 --------------------------------------------------------------

          Ground-State Mulliken Net Atomic Charges

     Atom                 Charge (a.u.)
  ----------------------------------------
      1 H                     0.174249
      2 C                    -0.099745
      3 C                     0.103188
      4 O                    -0.554075
      5 H                     0.176505
      6 C                    -0.500996
      7 H                     0.180288
      8 H                     0.177898
      9 H                     0.164119
     10 H                     0.178568
  ----------------------------------------
  Sum of atomic charges =     0.000000

 -----------------------------------------------------------------
                    Cartesian Multipole Moments
 -----------------------------------------------------------------
    Charge (ESU x 10^10)
                 0.0000
    Dipole Moment (Debye)
         X      -1.4653      Y      -1.5543      Z      -0.6980
       Tot       2.2472
    Quadrupole Moments (Debye-Ang)
        XX     -27.4992     XY      -4.0939     YY     -26.5114
        XZ      -2.2224     YZ      -1.0946     ZZ     -24.2540
    Octopole Moments (Debye-Ang^2)
       XXX     -78.3389    XXY     -12.6475    XYY     -28.7804
       YYY     -21.2239    XXZ       1.6915    XYZ      -2.1126
       YYZ       4.3606    XZZ     -25.5504    YZZ      -6.6574
       ZZZ      18.5376
    Hexadecapole Moments (Debye-Ang^3)
      XXXX    -231.2981   XXXY     -23.2155   XXYY     -58.6362
      XYYY     -17.7393   YYYY     -88.8687   XXXZ      25.8107
      XXYZ     -11.0425   XYYZ      10.7608   YYYZ     -23.5399
      XXZZ     -70.6364   XYZZ      -5.2631   YYZZ     -45.9627
      XZZZ      33.2980   YZZZ     -23.1490   ZZZZ    -191.4934
 -----------------------------------------------------------------
 ----------------------------------------------------------------
             Standard Nuclear Orientation (Angstroms)
    I     Atom           X                Y                Z
 ----------------------------------------------------------------
    1      H      -0.5396003454     1.1649003260     0.0872286366
    2      C       0.1788866951     0.5682133645     0.6252945742
    3      C       1.1760899588    -0.1925516770    -0.1100290962
    4      O       1.5080258155     1.0073321184     0.5338839151
    5      H      -0.1327205638     0.2470104325     1.6053914340
    6      C       1.2492222693    -0.1916255617    -1.6120028991
    7      H       1.5882490302    -1.0662337231     0.3716124236
    8      H       0.8139286891     0.7160013243    -2.0151045357
    9      H       0.7172428607    -1.0464886824    -2.0201005727
   10      H       2.2831855905    -0.2471579216    -1.9388238797
 ----------------------------------------------------------------
 Nuclear Repulsion Energy =   126.0599973496 hartrees
 There are       16 alpha and       16 beta electrons
FINAL TENSOR RESULT:
Order 1, Length 30
    Atom      X          Y          Z
     1   -1.427979768955162e-04   3.178241505056847e-05  -4.970261535295154e-04
     2    9.496778515684763e-04   1.017875648038656e-03   4.292972027488545e-04
     3    5.900585962302126e-04   1.254882663814701e-03  -5.012000126873367e-04
     4   -1.454250205289430e-03  -1.960973409103215e-03  -7.885299645797111e-04
     5    7.552201951692159e-05  -3.936736310553925e-04   2.269504013208801e-04
     6   -1.479822388969747e-04   2.501484267129688e-04   7.998905274386191e-04
     7    9.132297503657984e-05  -9.276930826509679e-05   1.648290769055266e-04
     8   -1.567096375452466e-04   3.140452825235919e-04  -6.196740381783207e-06
     9   -3.408075157719063e-04  -4.227372284066708e-04   5.493801226153469e-05
    10    5.359332919428488e-04   1.350565258542616e-06   1.171332062307992e-04

Archival summary:
1\1\copper\JobtypUnspecified\HF\6-31G*\136\eric\SatJul920:54:082016SatJul920:54:082016\0\\#,JobtypUnspecified,HF,6-31G*,\\0,1\O\C,1,1.40162\H,2,1.07943,1,113.421\C,1,1.40278,2,62.4557,3,108.871,0\H,4,1.07743,1,115.254,2,-111.315,0\H,4,1.07786,1,115.2,2,110.702,0\C,2,1.50375,1,116.54,3,137.496,0\H,7,1.08432,2,110.628,1,43.4205,0\H,7,1.08581,2,110.299,1,-76.3182,0\H,7,1.08643,2,110.542,1,164.015,0\\HF=-191.909727\\@

 Total job time:  52.10s(wall), 56.12s(cpu) 
 Sat Jul  9 20:54:08 2016

        *************************************************************
        *                                                           *
        *  Thank you very much for using Q-Chem.  Have a nice day.  *
        *                                                           *
        *************************************************************


0 sent ACK to 0 
now end server 0 ... 
