/home/eric/opt/apps/qchem/trunk_gcc_release_r20063_20160119_qints_r729/exe/qcprog.exe .freq_mp2.in.23410.qcin.1 /tmp/qchem/qchem23410/

Process 0 of 1 is on copper - thread support 0
initial socket setup ...start
initial socket setup ...done 
now start server 0 ... 
                  Welcome to Q-Chem
     A Quantum Leap Into The Future Of Chemistry


 Q-Chem 4.3, Q-Chem, Inc., Pleasanton, CA (2015)

 Y. Shao,  Z. Gan,  E. Epifanovsky,  A. T. B. Gilbert,  M. Wormit,  
 J. Kussmann,  A. W. Lange,  A. Behn,  J. Deng,  X. Feng,  D. Ghosh,  
 M. Goldey,  P. R. Horn,  L. D. Jacobson,  I. Kaliman,  R. Z. Khaliullin,  
 T. Kus,  A. Landau,  J. Liu,  E. I. Proynov,  Y. M. Rhee,  R. M. Richard,  
 M. A. Rohrdanz,  R. P. Steele,  E. J. Sundstrom,  H. L. Woodcock III,  
 P. M. Zimmerman,  D. Zuev,  B. Albrecht,  E. Alguire,  B. Austin,  
 S. A. Baeppler,  G. J. O. Beran,  Y. A. Bernard,  E. Berquist,  
 K. Brandhorst,  K. B. Bravaya,  S. T. Brown,  D. Casanova,  C.-M. Chang,  
 Y. Chen,  S. H. Chien,  K. D. Closser,  D. L. Crittenden,  M. Diedenhofen,  
 R. A. DiStasio Jr.,  H. Do,  A. D. Dutoi,  R. G. Edgar,  P.-T. Fang,  
 S. Fatehi,  Q. Feng,  L. Fusti-Molnar,  A. Ghysels,  
 A. Golubeva-Zadorozhnaya,  J. Gomes,  A. Gunina,  M. W. D. Hanson-Heine,  
 P. H. P. Harbach,  A. W. Hauser,  E. G. Hohenstein,  Z. C. Holden,  K. Hui,  
 T.-C. Jagau,  H. Ji,  B. Kaduk,  K. Khistyaev,  Jaehoon Kim,  Jihan Kim,  
 R. A. King,  P. Klunzinger,  D. Kosenkov,  T. Kowalczyk,  C. M. Krauter,  
 K. U. Lao,  A. Laurent,  K. V. Lawler,  S. Lehtola,  S. V. Levchenko,  
 C. Y. Lin,  Y.-S. Lin,  F. Liu,  E. Livshits,  R. C. Lochan,  A. Luenser,  
 P. Manohar,  S. F. Manzer,  S.-P. Mao,  N. Mardirossian,  A. V. Marenich,  
 L. A. Martinez-Martinez,  S. A. Maurer,  N. J. Mayhall,  K. Nanda,  
 C. M. Oana,  R. Olivares-Amaya,  D. P. O'Neill,  J. A. Parkhill,  
 T. M. Perrine,  R. Peverati,  P. A. Pieniazek,  F. Plasser,  A. Prociuk,  
 D. R. Rehn,  E. Rosta,  N. J. Russ,  N. Sergueev,  S. M. Sharada,  
 S. Sharma,  D. W. Small,  A. Sodt,  T. Stauch,  T. Stein,  D. Stuck,  
 Y.-C. Su,  A. J. W. Thom,  T. Tsuchimochi,  L. Vogt,  O. Vydrov,  T. Wang,  
 M. A. Watson,  J. Wenzel,  A. White,  C. F. Williams,  V. Vanovschi,  
 S. Yeganeh,  S. R. Yost,  Z.-Q. You,  I. Y. Zhang,  X. Zhang,  Y. Zhao,  
 B. R. Brooks,  G. K. L. Chan,  D. M. Chipman,  C. J. Cramer,  
 W. A. Goddard III,  M. S. Gordon,  W. J. Hehre,  A. Klamt,  
 H. F. Schaefer III,  M. W. Schmidt,  C. D. Sherrill,  D. G. Truhlar,  
 A. Warshel,  X. Xu,  A. Aspuru-Guzik,  R. Baer,  A. T. Bell,  N. A. Besley,  
 J.-D. Chai,  A. Dreuw,  B. D. Dunietz,  T. R. Furlani,  S. R. Gwaltney,  
 C.-P. Hsu,  Y. Jung,  J. Kong,  D. S. Lambrecht,  W. Liang,  C. Ochsenfeld,  
 V. A. Rassolov,  L. V. Slipchenko,  J. E. Subotnik,  T. Van Voorhis,  
 J. M. Herbert,  A. I. Krylov,  P. M. W. Gill,  M. Head-Gordon

 Contributors to earlier versions of Q-Chem not listed above: 
 R. D. Adamson,  J. Baker,  E. F. C. Byrd,  A. K. Chakraborty,  C.-L. Cheng,  
 H. Dachsel,  R. J. Doerksen,  G. Hawkins,  A. Heyden,  S. Hirata,  
 G. Kedziora,  F. J. Keil,  C. Kelley,  P. P. Korambath,  W. Kurlancheek,  
 A. M. Lee,  M. S. Lee,  D. Liotard,  I. Lotan,  P. E. Maslen,  N. Nair,  
 D. Neuhauser,  R. Olson,  B. Peters,  J. Ritchie,  N. E. Schultz,  
 N. Shenvi,  A. C. Simmonett,  K. S. Thanthiriwatte,  Q. Wu,  W. Zhang

 Please cite Q-Chem as follows:
 Y. Shao et al., Mol. Phys. 113, 184-215 (2015)
 DOI: 10.1080/00268976.2014.952696

 Q-Chem 4.3.0 for Intel X86 EM64T Linux

 Parts of Q-Chem use Armadillo 5.200.1 (Boston Tea Smuggler).
 http://arma.sourceforge.net/

 Q-Chem begins on Sat Jul  9 20:17:06 2016  

copper
Host: 0

     Scratch files written to /tmp/qchem/qchem23410//
 Parallel job on  1  processors

Checking the input file for inconsistencies... 	...done.

--------------------------------------------------------------
User input:
--------------------------------------------------------------
$rem
 jobtype freq
 method mp2
 basis 6-31g*
 symmetry false
 sym_ignore true
 n_frozen_core fc
 ideriv 1
$end

$molecule
0 1
H     -0.5396003454    1.1649003260    0.0872286366
C      0.1788866951    0.5682133645    0.6252945742
C      1.1760899588   -0.1925516770   -0.1100290962
O      1.5080258155    1.0073321184    0.5338839151
H     -0.1327205638    0.2470104325    1.6053914340
C      1.2492222693   -0.1916255617   -1.6120028991
H      1.5882490302   -1.0662337231    0.3716124236
H      0.8139286891    0.7160013243   -2.0151045357
H      0.7172428607   -1.0464886824   -2.0201005727
H      2.2831855905   -0.2471579216   -1.9388238797
$end
--------------------------------------------------------------
 ----------------------------------------------------------------
             Standard Nuclear Orientation (Angstroms)
    I     Atom           X                Y                Z
 ----------------------------------------------------------------
    1      H      -0.5396003454     1.1649003260     0.0872286366
    2      C       0.1788866951     0.5682133645     0.6252945742
    3      C       1.1760899588    -0.1925516770    -0.1100290962
    4      O       1.5080258155     1.0073321184     0.5338839151
    5      H      -0.1327205638     0.2470104325     1.6053914340
    6      C       1.2492222693    -0.1916255617    -1.6120028991
    7      H       1.5882490302    -1.0662337231     0.3716124236
    8      H       0.8139286891     0.7160013243    -2.0151045357
    9      H       0.7172428607    -1.0464886824    -2.0201005727
   10      H       2.2831855905    -0.2471579216    -1.9388238797
 ----------------------------------------------------------------
 Nuclear Repulsion Energy =   126.0599973496 hartrees
 There are       16 alpha and       16 beta electrons
 Requested basis set is 6-31G(d)
 There are 28 shells and 72 basis functions

 Total QAlloc Memory Limit   2000 MB
 Mega-Array Size        61 MB
 MEM_STATIC part        62 MB

                       Distance Matrix (Angstroms)
             H (  1)   C (  2)   C (  3)   O (  4)   H (  5)   C (  6)
   C (  2)  1.077856
   C (  3)  2.196629  1.453918
   O (  4)  2.101690  1.402780  1.401616
   H (  5)  1.820135  1.077432  2.202014  2.101967
   C (  6)  2.815570  2.593930  1.503753  2.471702  3.528993
   H (  7)  3.096220  2.173033  1.079432  2.081452  2.491698  2.194222
   H (  8)  2.540346  2.719711  2.141481  2.657816  3.771484  1.084324
   H (  9)  3.303140  3.145665  2.141990  3.371402  3.942052  1.086433
   H ( 10)  3.750589  3.415788  2.138488  2.879045  4.317669  1.085807
             H (  7)   H (  8)   H (  9)
   H (  8)  3.077719
   H (  9)  2.545453  1.765147
   H ( 10)  2.547928  1.758468  1.760032

 tim1(1): 
   0.0000000000000000     
 tim1(2): 
   0.0000000000000000     
 A cutoff of  1.0D-11 yielded    404 shell pairs
 There are      2734 function pairs

 -------------------------------------------------------
 OpenMP Integral Computing Module                       
 Release: version 1.0, May 2013, Q-Chem Inc. Pittsburgh 
 -------------------------------------------------------
 Integral Job Info:
 Integral job number is                      11
 Integral operator is                         1
 short-range coefficients                     0
 long-range coefficients              100000000
 Omega coefficients                           0
 if combine SR and LR in K                    0
 Integral screening is                        0
 Integral computing path is                   2
 max size of driver memory is            800000
 size of driver memory is                593474
 size of scratch memory is              2260544
 max col of scratch BK array               1296
 max len of scratch array in speh3          155
 max len of scratch index in speh4           18
 max int batch size is                      520
 min int batch size is                       52
 fixed nKL is                                52
 max L of basis functions is                  2
 order of int derivative is                   0
 number of shells is                         28
 number of basis is                          72
 number of cartesian basis is                72
 number of contracted shell pairs           404
 number of primitive shell pairs           1745
 maxK2 (contraction) of shell pair           36
 max number of K2 of shell pair               1
 max number of CS2 of shell pair             50
 max number of PS2 of shell pair            258
 mem total for path MDJ                   16216
 -------------------------------------------------------
 Smallest overlap matrix eigenvalue = 3.68E-03
 Guess from superposition of atomic densities
 Warning:  Energy on first SCF cycle will be non-variational
 A restricted Hartree-Fock SCF calculation will be
 performed using Pulay DIIS extrapolation
 SCF converges when DIIS error is below 1.0E-08
 ---------------------------------------
  Cycle       Energy         DIIS Error
 ---------------------------------------
    1    -193.3079955015      1.04E-01
    2    -191.8496373718      9.23E-03
    3    -191.8975380079      4.82E-03
    4    -191.9086686718      1.25E-03
    5    -191.9096868454      2.03E-04
    6    -191.9097224423      5.96E-05
    7    -191.9097262206      1.48E-05
    8    -191.9097265934      3.45E-06
    9    -191.9097266130      5.90E-07
   10    -191.9097266136      1.70E-07
   11    -191.9097266136      5.04E-08
   12    -191.9097266136      1.60E-08
   13    -191.9097266136      4.13E-09 Convergence criterion met
 ---------------------------------------
 SCF time:  CPU 1.33 s  wall 1.24 s
 SCF   energy in the final basis set = -191.9097266136
 Total energy in the final basis set = -191.9097266136

 Components of the MP2 correlation energy:
        aaaa  correlation energy =        -0.0712502638 au
        abab  correlation energy =        -0.4232216033 au
        bbbb  correlation energy =        -0.0712502638 au
        non-Brillouin singles    =        -0.0000000000 au

 Total  MP2   correlation energy =        -0.5657221309 au
        MP2         total energy =      -192.4754487446 au

  Entering Z-vector solver.
   1         0           1      0.000495    0.000495
   2         0           1      0.000096    0.000096
   3         0           1      0.000033    0.000033
   4         0           1      0.000006    0.000006
   5         0           1      0.000002    0.000002
   6         1           0      0.000000    0.000000    Roots Converged

 --------------------------------------------------------------

                    Orbital Energies (a.u.)
 --------------------------------------------------------------

 Alpha MOs
 -- Occupied --
-20.568 -11.284 -11.276 -11.222  -1.427  -1.012  -0.908  -0.819
 -0.703  -0.649  -0.589  -0.564  -0.526  -0.519  -0.440  -0.431
 -- Virtual --
  0.248   0.280   0.281   0.293   0.314   0.334   0.339   0.344
  0.428   0.508   0.672   0.731   0.774   0.791   0.836   0.877
  0.899   0.955   1.010   1.083   1.132   1.145   1.166   1.192
  1.209   1.222   1.252   1.292   1.326   1.515   1.655   1.716
  1.745   1.886   1.953   2.060   2.123   2.213   2.299   2.384
  2.469   2.491   2.510   2.636   2.652   2.686   2.753   2.884
  2.951   3.081   3.224   3.319   4.227   4.596   4.693   4.887
 --------------------------------------------------------------

          Ground-State Mulliken Net Atomic Charges

     Atom                 Charge (a.u.)
  ----------------------------------------
      1 H                     0.166789
      2 C                    -0.140419
      3 C                     0.075563
      4 O                    -0.448073
      5 H                     0.168661
      6 C                    -0.511573
      7 H                     0.168271
      8 H                     0.175932
      9 H                     0.166412
     10 H                     0.178438
  ----------------------------------------
  Sum of atomic charges =    -0.000000

 -----------------------------------------------------------------
                    Cartesian Multipole Moments
 -----------------------------------------------------------------
    Charge (ESU x 10^10)
                -0.0000
    Dipole Moment (Debye)
         X      -1.2522      Y      -1.3367      Z      -0.6448
       Tot       1.9418
    Quadrupole Moments (Debye-Ang)
        XX     -27.1842     XY      -3.6117     YY     -26.3633
        XZ      -2.0005     YZ      -0.9484     ZZ     -24.3071
    Octopole Moments (Debye-Ang^2)
       XXX     -77.5499    XXY     -11.8278    XYY     -28.3055
       YYY     -20.7883    XXZ       2.0015    XYZ      -1.8157
       YYZ       4.4721    XZZ     -25.4051    YZZ      -6.6083
       ZZZ      18.3854
    Hexadecapole Moments (Debye-Ang^3)
      XXXX    -230.4581   XXXY     -21.4626   XXYY     -58.0782
      XYYY     -16.6317   YYYY     -89.2111   XXXZ      26.4381
      XXYZ     -10.5006   XYYZ      11.0730   YYYZ     -23.1836
      XXZZ     -70.6705   XYZZ      -4.9888   YYZZ     -46.1095
      XZZZ      33.5739   YZZZ     -23.0251   ZZZZ    -193.1645
 -----------------------------------------------------------------
 DrvMan is completing analytic gradient of the MP2 energy
 MP2 relaxed dipole moment
            1
    1  -0.4926617
    2  -0.5259095
    3  -0.2536718
	Magnitude:	 0.764 au	 1.942 Debye
 MP2 energy read as -192.475449
 Full Analytical Gradient of MP2 Energy (in au.)
             1             2             3             4             5
    1    0.00607626    0.01874135    0.00211875   -0.02844746    0.00335417
    2   -0.00351345    0.00368869    0.01586787   -0.02775553    0.00311595
    3    0.00443070   -0.00269751    0.01783511   -0.00881982   -0.00711546
             6             7             8             9            10
    1    0.00068568   -0.00251638    0.00263958    0.00263592   -0.00528787
    2    0.00142205    0.00783969   -0.00520838    0.00436177    0.00018135
    3   -0.00482685   -0.00361248    0.00110421    0.00226768    0.00143441
 Gradient time:  CPU 0.06 s  wall 0.06 s
 ######################################################
 ######################################################
 # Starting finite difference calculation for IDERIV  #
 Finite diff step size: 1.89e-03 a.u.
 ----------------------------------------------------------------
             Standard Nuclear Orientation (Angstroms)
    I     Atom           X                Y                Z
 ----------------------------------------------------------------
    1      H      -0.5386003454     1.1649003260     0.0872286366
    2      C       0.1788866951     0.5682133645     0.6252945742
    3      C       1.1760899588    -0.1925516770    -0.1100290962
    4      O       1.5080258155     1.0073321184     0.5338839151
    5      H      -0.1327205638     0.2470104325     1.6053914340
    6      C       1.2492222693    -0.1916255617    -1.6120028991
    7      H       1.5882490302    -1.0662337231     0.3716124236
    8      H       0.8139286891     0.7160013243    -2.0151045357
    9      H       0.7172428607    -1.0464886824    -2.0201005727
   10      H       2.2831855905    -0.2471579216    -1.9388238797
 ----------------------------------------------------------------
 Nuclear Repulsion Energy =   126.0636863183 hartrees
 There are       16 alpha and       16 beta electrons

                       Distance Matrix (Angstroms)
             H (  1)   C (  2)   C (  3)   O (  4)   H (  5)   C (  6)
   C (  2)  1.077190
   C (  3)  2.195848  1.453918
   O (  4)  2.100716  1.402780  1.401616
   H (  5)  1.819912  1.077432  2.202014  2.101967
   C (  6)  2.814935  2.593930  1.503753  2.471702  3.528993
   H (  7)  3.095533  2.173033  1.079432  2.081452  2.491698  2.194222
   H (  8)  2.539813  2.719711  2.141481  2.657816  3.771484  1.084324
   H (  9)  3.302759  3.145665  2.141990  3.371402  3.942052  1.086433
   H ( 10)  3.749836  3.415788  2.138488  2.879045  4.317669  1.085807
             H (  7)   H (  8)   H (  9)
   H (  8)  3.077719
   H (  9)  2.545453  1.765147
   H ( 10)  2.547928  1.758468  1.760032

 Requested basis set is 6-31G(d)
 There are 28 shells and 72 basis functions
 tim1(1): 
   0.0000000000000000     
 tim1(2): 
   0.0000000000000000     
 A cutoff of  1.0D-11 yielded    404 shell pairs
 There are      2734 function pairs
 Smallest overlap matrix eigenvalue = 3.68E-03
 Guess MOs from SCF MO coefficient file
 Reading MOs from coefficient file
 Reading MOs from coefficient file
 A restricted Hartree-Fock SCF calculation will be
 performed using Pulay DIIS extrapolation
 SCF converges when DIIS error is below 1.0E-08
 ---------------------------------------
  Cycle       Energy         DIIS Error
 ---------------------------------------
    1    -191.9099845658      2.53E-05
    2    -191.9097264964      4.21E-06
    3    -191.9097265100      2.10E-06
    4    -191.9097265124      5.42E-07
    5    -191.9097265127      1.86E-07
    6    -191.9097265128      6.86E-08
    7    -191.9097265128      2.13E-08
    8    -191.9097265128      6.07E-09 Convergence criterion met
 ---------------------------------------
 SCF time:  CPU 0.90 s  wall 0.83 s
 SCF   energy in the final basis set = -191.9097265128
 Total energy in the final basis set = -191.9097265128

 Components of the MP2 correlation energy:
        aaaa  correlation energy =        -0.0712495163 au
        abab  correlation energy =        -0.4232113643 au
        bbbb  correlation energy =        -0.0712495163 au
        non-Brillouin singles    =        -0.0000000000 au

 Total  MP2   correlation energy =        -0.5657103968 au
        MP2         total energy =      -192.4754369096 au

  Entering Z-vector solver.
   1         0           1      0.000494    0.000494
   2         0           1      0.000096    0.000096
   3         0           1      0.000033    0.000033
   4         0           1      0.000006    0.000006
   5         0           1      0.000002    0.000002
   6         1           0      0.000000    0.000000    Roots Converged

 --------------------------------------------------------------

                    Orbital Energies (a.u.)
 --------------------------------------------------------------

 Alpha MOs
 -- Occupied --
-20.568 -11.284 -11.276 -11.222  -1.427  -1.012  -0.908  -0.819
 -0.703  -0.649  -0.589  -0.565  -0.526  -0.519  -0.440  -0.431
 -- Virtual --
  0.248   0.280   0.281   0.293   0.314   0.334   0.339   0.344
  0.428   0.508   0.672   0.731   0.774   0.791   0.836   0.877
  0.899   0.955   1.010   1.083   1.132   1.145   1.166   1.192
  1.209   1.222   1.252   1.292   1.326   1.515   1.655   1.716
  1.745   1.886   1.953   2.060   2.123   2.213   2.299   2.384
  2.469   2.491   2.510   2.636   2.652   2.686   2.753   2.884
  2.951   3.081   3.224   3.319   4.227   4.596   4.693   4.887
 --------------------------------------------------------------

          Ground-State Mulliken Net Atomic Charges

     Atom                 Charge (a.u.)
  ----------------------------------------
      1 H                     0.166888
      2 C                    -0.140397
      3 C                     0.075496
      4 O                    -0.448135
      5 H                     0.168684
      6 C                    -0.511572
      7 H                     0.168266
      8 H                     0.175918
      9 H                     0.166411
     10 H                     0.178441
  ----------------------------------------
  Sum of atomic charges =    -0.000000

 -----------------------------------------------------------------
                    Cartesian Multipole Moments
 -----------------------------------------------------------------
    Charge (ESU x 10^10)
                -0.0000
    Dipole Moment (Debye)
         X      -1.2525      Y      -1.3365      Z      -0.6448
       Tot       1.9418
    Quadrupole Moments (Debye-Ang)
        XX     -27.1852     XY      -3.6118     YY     -26.3620
        XZ      -2.0008     YZ      -0.9487     ZZ     -24.3063
    Octopole Moments (Debye-Ang^2)
       XXX     -77.5545    XXY     -11.8288    XYY     -28.3066
       YYY     -20.7847    XXZ       2.0009    XYZ      -1.8159
       YYZ       4.4721    XZZ     -25.4065    YZZ      -6.6078
       ZZZ      18.3870
    Hexadecapole Moments (Debye-Ang^3)
      XXXX    -230.4568   XXXY     -21.4670   XXYY     -58.0781
      XYYY     -16.6355   YYYY     -89.2029   XXXZ      26.4360
      XXYZ     -10.5009   XYYZ      11.0726   YYYZ     -23.1835
      XXZZ     -70.6698   XYZZ      -4.9903   YYZZ     -46.1086
      XZZZ      33.5738   YZZZ     -23.0249   ZZZZ    -193.1628
 -----------------------------------------------------------------
 DrvMan is completing analytic gradient of the MP2 energy
 MP2 relaxed dipole moment
            1
    1  -0.4927768
    2  -0.5258085
    3  -0.2536923
	Magnitude:	 0.764 au	 1.942 Debye
 MP2 energy read as -192.475437
 Full Analytical Gradient of MP2 Energy (in au.)
             1             2             3             4             5
    1    0.00645469    0.01841963    0.00210073   -0.02850639    0.00337180
    2   -0.00374788    0.00390494    0.01586308   -0.02772374    0.00310708
    3    0.00463035   -0.00288442    0.01782588   -0.00883407   -0.00710519
             6             7             8             9            10
    1    0.00068704   -0.00251499    0.00263916    0.00263592   -0.00528759
    2    0.00142389    0.00783898   -0.00520869    0.00436157    0.00018078
    3   -0.00482791   -0.00361288    0.00110534    0.00226849    0.00143440
 Gradient time:  CPU 0.05 s  wall 0.05 s
 ----------------------------------------------------------------
             Standard Nuclear Orientation (Angstroms)
    I     Atom           X                Y                Z
 ----------------------------------------------------------------
    1      H      -0.5406003454     1.1649003260     0.0872286366
    2      C       0.1788866951     0.5682133645     0.6252945742
    3      C       1.1760899588    -0.1925516770    -0.1100290962
    4      O       1.5080258155     1.0073321184     0.5338839151
    5      H      -0.1327205638     0.2470104325     1.6053914340
    6      C       1.2492222693    -0.1916255617    -1.6120028991
    7      H       1.5882490302    -1.0662337231     0.3716124236
    8      H       0.8139286891     0.7160013243    -2.0151045357
    9      H       0.7172428607    -1.0464886824    -2.0201005727
   10      H       2.2831855905    -0.2471579216    -1.9388238797
 ----------------------------------------------------------------
 Nuclear Repulsion Energy =   126.0563102733 hartrees
 There are       16 alpha and       16 beta electrons

                       Distance Matrix (Angstroms)
             H (  1)   C (  2)   C (  3)   O (  4)   H (  5)   C (  6)
   C (  2)  1.078523
   C (  3)  2.197410  1.453918
   O (  4)  2.102664  1.402780  1.401616
   H (  5)  1.820359  1.077432  2.202014  2.101967
   C (  6)  2.816206  2.593930  1.503753  2.471702  3.528993
   H (  7)  3.096907  2.173033  1.079432  2.081452  2.491698  2.194222
   H (  8)  2.540879  2.719711  2.141481  2.657816  3.771484  1.084324
   H (  9)  3.303520  3.145665  2.141990  3.371402  3.942052  1.086433
   H ( 10)  3.751342  3.415788  2.138488  2.879045  4.317669  1.085807
             H (  7)   H (  8)   H (  9)
   H (  8)  3.077719
   H (  9)  2.545453  1.765147
   H ( 10)  2.547928  1.758468  1.760032

 Requested basis set is 6-31G(d)
 There are 28 shells and 72 basis functions
 tim1(1): 
   0.0000000000000000     
 tim1(2): 
   0.0000000000000000     
 A cutoff of  1.0D-11 yielded    404 shell pairs
 There are      2734 function pairs
 Smallest overlap matrix eigenvalue = 3.68E-03
 Guess MOs from SCF MO coefficient file
 Reading MOs from coefficient file
 Reading MOs from coefficient file
 A restricted Hartree-Fock SCF calculation will be
 performed using Pulay DIIS extrapolation
 SCF converges when DIIS error is below 1.0E-08
 ---------------------------------------
  Cycle       Energy         DIIS Error
 ---------------------------------------
    1    -191.9092096139      5.07E-05
    2    -191.9097259077      8.43E-06
    3    -191.9097259619      4.21E-06
    4    -191.9097259716      1.08E-06
    5    -191.9097259729      3.72E-07
    6    -191.9097259730      1.37E-07
    7    -191.9097259731      4.27E-08
    8    -191.9097259731      1.21E-08
    9    -191.9097259731      3.15E-09 Convergence criterion met
 ---------------------------------------
 SCF time:  CPU 1.00 s  wall 0.92 s
 SCF   energy in the final basis set = -191.9097259731
 Total energy in the final basis set = -191.9097259731

 Components of the MP2 correlation energy:
        aaaa  correlation energy =        -0.0712510143 au
        abab  correlation energy =        -0.4232318657 au
        bbbb  correlation energy =        -0.0712510143 au
        non-Brillouin singles    =        -0.0000000000 au

 Total  MP2   correlation energy =        -0.5657338943 au
        MP2         total energy =      -192.4754598673 au

  Entering Z-vector solver.
   1         0           1      0.000495    0.000495
   2         0           1      0.000096    0.000096
   3         0           1      0.000033    0.000033
   4         0           1      0.000006    0.000006
   5         0           1      0.000002    0.000002
   6         1           0      0.000000    0.000000    Roots Converged

 --------------------------------------------------------------

                    Orbital Energies (a.u.)
 --------------------------------------------------------------

 Alpha MOs
 -- Occupied --
-20.568 -11.284 -11.276 -11.222  -1.427  -1.012  -0.908  -0.819
 -0.703  -0.649  -0.589  -0.564  -0.526  -0.519  -0.440  -0.431
 -- Virtual --
  0.248   0.280   0.281   0.293   0.314   0.334   0.339   0.344
  0.428   0.508   0.672   0.731   0.774   0.791   0.836   0.877
  0.899   0.955   1.010   1.083   1.132   1.145   1.166   1.192
  1.209   1.222   1.252   1.292   1.326   1.515   1.655   1.716
  1.745   1.886   1.953   2.060   2.123   2.213   2.299   2.383
  2.469   2.491   2.509   2.636   2.652   2.686   2.753   2.884
  2.951   3.081   3.224   3.319   4.227   4.596   4.693   4.887
 --------------------------------------------------------------

          Ground-State Mulliken Net Atomic Charges

     Atom                 Charge (a.u.)
  ----------------------------------------
      1 H                     0.166689
      2 C                    -0.140442
      3 C                     0.075629
      4 O                    -0.448011
      5 H                     0.168638
      6 C                    -0.511574
      7 H                     0.168276
      8 H                     0.175945
      9 H                     0.166413
     10 H                     0.178435
  ----------------------------------------
  Sum of atomic charges =     0.000000

 -----------------------------------------------------------------
                    Cartesian Multipole Moments
 -----------------------------------------------------------------
    Charge (ESU x 10^10)
                -0.0000
    Dipole Moment (Debye)
         X      -1.2519      Y      -1.3370      Z      -0.6447
       Tot       1.9418
    Quadrupole Moments (Debye-Ang)
        XX     -27.1832     XY      -3.6116     YY     -26.3645
        XZ      -2.0003     YZ      -0.9481     ZZ     -24.3079
    Octopole Moments (Debye-Ang^2)
       XXX     -77.5454    XXY     -11.8268    XYY     -28.3044
       YYY     -20.7918    XXZ       2.0022    XYZ      -1.8154
       YYZ       4.4722    XZZ     -25.4037    YZZ      -6.6089
       ZZZ      18.3838
    Hexadecapole Moments (Debye-Ang^3)
      XXXX    -230.4594   XXXY     -21.4582   XXYY     -58.0783
      XYYY     -16.6280   YYYY     -89.2193   XXXZ      26.4401
      XXYZ     -10.5003   XYYZ      11.0734   YYYZ     -23.1838
      XXZZ     -70.6711   XYZZ      -4.9872   YYZZ     -46.1105
      XZZZ      33.5740   YZZZ     -23.0253   ZZZZ    -193.1661
 -----------------------------------------------------------------
 DrvMan is completing analytic gradient of the MP2 energy
 MP2 relaxed dipole moment
            1
    1  -0.4925462
    2  -0.5260108
    3  -0.2536510
	Magnitude:	 0.764 au	 1.942 Debye
 MP2 energy read as -192.475460
 Full Analytical Gradient of MP2 Energy (in au.)
             1             2             3             4             5
    1    0.00569860    0.01906241    0.00213675   -0.02838865    0.00333658
    2   -0.00328015    0.00347355    0.01587267   -0.02778729    0.00312477
    3    0.00423202   -0.00251155    0.01784434   -0.00880562   -0.00712571
             6             7             8             9            10
    1    0.00068433   -0.00251778    0.00264000    0.00263593   -0.00528817
    2    0.00142021    0.00784041   -0.00520808    0.00436197    0.00018193
    3   -0.00482579   -0.00361208    0.00110309    0.00226688    0.00143442
 Gradient time:  CPU 0.05 s  wall 0.05 s
 ----------------------------------------------------------------
             Standard Nuclear Orientation (Angstroms)
    I     Atom           X                Y                Z
 ----------------------------------------------------------------
    1      H      -0.5396003454     1.1659003260     0.0872286366
    2      C       0.1788866951     0.5682133645     0.6252945742
    3      C       1.1760899588    -0.1925516770    -0.1100290962
    4      O       1.5080258155     1.0073321184     0.5338839151
    5      H      -0.1327205638     0.2470104325     1.6053914340
    6      C       1.2492222693    -0.1916255617    -1.6120028991
    7      H       1.5882490302    -1.0662337231     0.3716124236
    8      H       0.8139286891     0.7160013243    -2.0151045357
    9      H       0.7172428607    -1.0464886824    -2.0201005727
   10      H       2.2831855905    -0.2471579216    -1.9388238797
 ----------------------------------------------------------------
 Nuclear Repulsion Energy =   126.0576311717 hartrees
 There are       16 alpha and       16 beta electrons

                       Distance Matrix (Angstroms)
             H (  1)   C (  2)   C (  3)   O (  4)   H (  5)   C (  6)
   C (  2)  1.078410
   C (  3)  2.197247  1.453918
   O (  4)  2.101765  1.402780  1.401616
   H (  5)  1.820639  1.077432  2.202014  2.101967
   C (  6)  2.816052  2.593930  1.503753  2.471702  3.528993
   H (  7)  3.096940  2.173033  1.079432  2.081452  2.491698  2.194222
   H (  8)  2.540523  2.719711  2.141481  2.657816  3.771484  1.084324
   H (  9)  3.303809  3.145665  2.141990  3.371402  3.942052  1.086433
   H ( 10)  3.750966  3.415788  2.138488  2.879045  4.317669  1.085807
             H (  7)   H (  8)   H (  9)
   H (  8)  3.077719
   H (  9)  2.545453  1.765147
   H ( 10)  2.547928  1.758468  1.760032

 Requested basis set is 6-31G(d)
 There are 28 shells and 72 basis functions
 tim1(1): 
   0.0000000000000000     
 tim1(2): 
   0.0000000000000000     
 A cutoff of  1.0D-11 yielded    404 shell pairs
 There are      2734 function pairs
 Smallest overlap matrix eigenvalue = 3.68E-03
 Guess MOs from SCF MO coefficient file
 Reading MOs from coefficient file
 Reading MOs from coefficient file
 A restricted Hartree-Fock SCF calculation will be
 performed using Pulay DIIS extrapolation
 SCF converges when DIIS error is below 1.0E-08
 ---------------------------------------
  Cycle       Energy         DIIS Error
 ---------------------------------------
    1    -191.9097664674      1.25E-05
    2    -191.9097262603      3.65E-06
    3    -191.9097262716      2.18E-06
    4    -191.9097262747      5.54E-07
    5    -191.9097262753      1.52E-07
    6    -191.9097262753      5.42E-08
    7    -191.9097262753      1.58E-08
    8    -191.9097262753      3.36E-09 Convergence criterion met
 ---------------------------------------
 SCF time:  CPU 0.90 s  wall 0.82 s
 SCF   energy in the final basis set = -191.9097262753
 Total energy in the final basis set = -191.9097262753

 Components of the MP2 correlation energy:
        aaaa  correlation energy =        -0.0712504591 au
        abab  correlation energy =        -0.4232279285 au
        bbbb  correlation energy =        -0.0712504591 au
        non-Brillouin singles    =        -0.0000000000 au

 Total  MP2   correlation energy =        -0.5657288467 au
        MP2         total energy =      -192.4754551220 au

  Entering Z-vector solver.
   1         0           1      0.000495    0.000495
   2         0           1      0.000096    0.000096
   3         0           1      0.000033    0.000033
   4         0           1      0.000006    0.000006
   5         0           1      0.000002    0.000002
   6         1           0      0.000000    0.000000    Roots Converged

 --------------------------------------------------------------

                    Orbital Energies (a.u.)
 --------------------------------------------------------------

 Alpha MOs
 -- Occupied --
-20.568 -11.284 -11.276 -11.222  -1.427  -1.012  -0.908  -0.819
 -0.703  -0.649  -0.589  -0.564  -0.526  -0.519  -0.440  -0.431
 -- Virtual --
  0.248   0.280   0.281   0.293   0.314   0.334   0.339   0.344
  0.428   0.508   0.672   0.731   0.774   0.791   0.836   0.877
  0.899   0.955   1.010   1.083   1.132   1.145   1.166   1.192
  1.209   1.222   1.252   1.292   1.326   1.514   1.655   1.716
  1.745   1.886   1.953   2.060   2.123   2.213   2.299   2.384
  2.469   2.491   2.510   2.636   2.652   2.686   2.753   2.884
  2.951   3.081   3.224   3.319   4.227   4.596   4.693   4.887
 --------------------------------------------------------------

          Ground-State Mulliken Net Atomic Charges

     Atom                 Charge (a.u.)
  ----------------------------------------
      1 H                     0.166753
      2 C                    -0.140456
      3 C                     0.075604
      4 O                    -0.448065
      5 H                     0.168677
      6 C                    -0.511569
      7 H                     0.168277
      8 H                     0.175937
      9 H                     0.166413
     10 H                     0.178431
  ----------------------------------------
  Sum of atomic charges =    -0.000000

 -----------------------------------------------------------------
                    Cartesian Multipole Moments
 -----------------------------------------------------------------
    Charge (ESU x 10^10)
                -0.0000
    Dipole Moment (Debye)
         X      -1.2519      Y      -1.3366      Z      -0.6445
       Tot       1.9414
    Quadrupole Moments (Debye-Ang)
        XX     -27.1850     XY      -3.6121     YY     -26.3625
        XZ      -2.0006     YZ      -0.9485     ZZ     -24.3073
    Octopole Moments (Debye-Ang^2)
       XXX     -77.5494    XXY     -11.8294    XYY     -28.3059
       YYY     -20.7897    XXZ       2.0014    XYZ      -1.8159
       YYZ       4.4719    XZZ     -25.4051    YZZ      -6.6096
       ZZZ      18.3857
    Hexadecapole Moments (Debye-Ang^3)
      XXXX    -230.4611   XXXY     -21.4617   XXYY     -58.0800
      XYYY     -16.6314   YYYY     -89.2207   XXXZ      26.4383
      XXYZ     -10.5013   XYYZ      11.0731   YYYZ     -23.1844
      XXZZ     -70.6717   XYZZ      -4.9881   YYZZ     -46.1120
      XZZZ      33.5741   YZZZ     -23.0257   ZZZZ    -193.1636
 -----------------------------------------------------------------
 DrvMan is completing analytic gradient of the MP2 energy
 MP2 relaxed dipole moment
            1
    1  -0.4925283
    2  -0.5258536
    3  -0.2535642
	Magnitude:	 0.764 au	 1.941 Debye
 MP2 energy read as -192.475455
 Full Analytical Gradient of MP2 Energy (in au.)
             1             2             3             4             5
    1    0.00584281    0.01897194    0.00214031   -0.02848036    0.00336578
    2   -0.00323481    0.00340521    0.01584052   -0.02772370    0.00311066
    3    0.00423726   -0.00250937    0.01786656   -0.00884725   -0.00711263
             6             7             8             9            10
    1    0.00068246   -0.00250982    0.00263929    0.00263608   -0.00528848
    2    0.00142364    0.00784236   -0.00520763    0.00436167    0.00018208
    3   -0.00482469   -0.00361499    0.00110287    0.00226747    0.00143477
 Gradient time:  CPU 0.05 s  wall 0.05 s
 ----------------------------------------------------------------
             Standard Nuclear Orientation (Angstroms)
    I     Atom           X                Y                Z
 ----------------------------------------------------------------
    1      H      -0.5396003454     1.1639003260     0.0872286366
    2      C       0.1788866951     0.5682133645     0.6252945742
    3      C       1.1760899588    -0.1925516770    -0.1100290962
    4      O       1.5080258155     1.0073321184     0.5338839151
    5      H      -0.1327205638     0.2470104325     1.6053914340
    6      C       1.2492222693    -0.1916255617    -1.6120028991
    7      H       1.5882490302    -1.0662337231     0.3716124236
    8      H       0.8139286891     0.7160013243    -2.0151045357
    9      H       0.7172428607    -1.0464886824    -2.0201005727
   10      H       2.2831855905    -0.2471579216    -1.9388238797
 ----------------------------------------------------------------
 Nuclear Repulsion Energy =   126.0623628344 hartrees
 There are       16 alpha and       16 beta electrons

                       Distance Matrix (Angstroms)
             H (  1)   C (  2)   C (  3)   O (  4)   H (  5)   C (  6)
   C (  2)  1.077303
   C (  3)  2.196011  1.453918
   O (  4)  2.101615  1.402780  1.401616
   H (  5)  1.819631  1.077432  2.202014  2.101967
   C (  6)  2.815089  2.593930  1.503753  2.471702  3.528993
   H (  7)  3.095499  2.173033  1.079432  2.081452  2.491698  2.194222
   H (  8)  2.540169  2.719711  2.141481  2.657816  3.771484  1.084324
   H (  9)  3.302470  3.145665  2.141990  3.371402  3.942052  1.086433
   H ( 10)  3.750213  3.415788  2.138488  2.879045  4.317669  1.085807
             H (  7)   H (  8)   H (  9)
   H (  8)  3.077719
   H (  9)  2.545453  1.765147
   H ( 10)  2.547928  1.758468  1.760032

 Requested basis set is 6-31G(d)
 There are 28 shells and 72 basis functions
 tim1(1): 
   0.0000000000000000     
 tim1(2): 
   0.0000000000000000     
 A cutoff of  1.0D-11 yielded    404 shell pairs
 There are      2734 function pairs
 Smallest overlap matrix eigenvalue = 3.68E-03
 Guess MOs from SCF MO coefficient file
 Reading MOs from coefficient file
 Reading MOs from coefficient file
 A restricted Hartree-Fock SCF calculation will be
 performed using Pulay DIIS extrapolation
 SCF converges when DIIS error is below 1.0E-08
 ---------------------------------------
  Cycle       Energy         DIIS Error
 ---------------------------------------
    1    -191.9101620217      4.22E-05
    2    -191.9097263427      7.31E-06
    3    -191.9097263889      2.54E-06
    4    -191.9097263943      8.69E-07
    5    -191.9097263953      2.93E-07
    6    -191.9097263954      1.12E-07
    7    -191.9097263955      4.30E-08
    8    -191.9097263955      1.27E-08
    9    -191.9097263955      3.28E-09 Convergence criterion met
 ---------------------------------------
 SCF time:  CPU 1.00 s  wall 0.92 s
 SCF   energy in the final basis set = -191.9097263955
 Total energy in the final basis set = -191.9097263955

 Components of the MP2 correlation energy:
        aaaa  correlation energy =        -0.0712500713 au
        abab  correlation energy =        -0.4232153015 au
        bbbb  correlation energy =        -0.0712500713 au
        non-Brillouin singles    =        -0.0000000000 au

 Total  MP2   correlation energy =        -0.5657154441 au
        MP2         total energy =      -192.4754418396 au

  Entering Z-vector solver.
   1         0           1      0.000495    0.000495
   2         0           1      0.000096    0.000096
   3         0           1      0.000033    0.000033
   4         0           1      0.000006    0.000006
   5         0           1      0.000002    0.000002
   6         1           0      0.000000    0.000000    Roots Converged

 --------------------------------------------------------------

                    Orbital Energies (a.u.)
 --------------------------------------------------------------

 Alpha MOs
 -- Occupied --
-20.568 -11.284 -11.276 -11.222  -1.427  -1.012  -0.908  -0.819
 -0.703  -0.649  -0.589  -0.564  -0.526  -0.519  -0.440  -0.431
 -- Virtual --
  0.248   0.280   0.281   0.293   0.314   0.334   0.339   0.344
  0.428   0.508   0.672   0.730   0.774   0.791   0.836   0.877
  0.899   0.955   1.010   1.083   1.132   1.145   1.166   1.192
  1.209   1.222   1.252   1.292   1.326   1.515   1.655   1.716
  1.745   1.886   1.953   2.060   2.123   2.213   2.299   2.384
  2.469   2.491   2.509   2.636   2.652   2.686   2.753   2.884
  2.951   3.081   3.224   3.319   4.227   4.596   4.693   4.887
 --------------------------------------------------------------

          Ground-State Mulliken Net Atomic Charges

     Atom                 Charge (a.u.)
  ----------------------------------------
      1 H                     0.166824
      2 C                    -0.140382
      3 C                     0.075522
      4 O                    -0.448081
      5 H                     0.168645
      6 C                    -0.511577
      7 H                     0.168264
      8 H                     0.175926
      9 H                     0.166412
     10 H                     0.178445
  ----------------------------------------
  Sum of atomic charges =    -0.000000

 -----------------------------------------------------------------
                    Cartesian Multipole Moments
 -----------------------------------------------------------------
    Charge (ESU x 10^10)
                -0.0000
    Dipole Moment (Debye)
         X      -1.2526      Y      -1.3369      Z      -0.6450
       Tot       1.9422
    Quadrupole Moments (Debye-Ang)
        XX     -27.1833     XY      -3.6113     YY     -26.3641
        XZ      -2.0005     YZ      -0.9483     ZZ     -24.3069
    Octopole Moments (Debye-Ang^2)
       XXX     -77.5504    XXY     -11.8262    XYY     -28.3051
       YYY     -20.7869    XXZ       2.0017    XYZ      -1.8155
       YYZ       4.4723    XZZ     -25.4051    YZZ      -6.6071
       ZZZ      18.3851
    Hexadecapole Moments (Debye-Ang^3)
      XXXX    -230.4551   XXXY     -21.4635   XXYY     -58.0765
      XYYY     -16.6320   YYYY     -89.2015   XXXZ      26.4379
      XXYZ     -10.4999   XYYZ      11.0729   YYYZ     -23.1828
      XXZZ     -70.6693   XYZZ      -4.9895   YYZZ     -46.1071
      XZZZ      33.5737   YZZZ     -23.0245   ZZZZ    -193.1653
 -----------------------------------------------------------------
 DrvMan is completing analytic gradient of the MP2 energy
 MP2 relaxed dipole moment
            1
    1  -0.4927947
    2  -0.5259657
    3  -0.2537794
	Magnitude:	 0.764 au	 1.942 Debye
 MP2 energy read as -192.475442
 Full Analytical Gradient of MP2 Energy (in au.)
             1             2             3             4             5
    1    0.00631055    0.01850994    0.00209713   -0.02841451    0.00334256
    2   -0.00379222    0.00397230    0.01589525   -0.02778738    0.00312122
    3    0.00462479   -0.00288630    0.01780363   -0.00879235   -0.00711831
             6             7             8             9            10
    1    0.00068892   -0.00252295    0.00263987    0.00263576   -0.00528727
    2    0.00142045    0.00783702   -0.00520914    0.00436186    0.00018063
    3   -0.00482902   -0.00360996    0.00110556    0.00226789    0.00143405
 Gradient time:  CPU 0.05 s  wall 0.05 s
 ----------------------------------------------------------------
             Standard Nuclear Orientation (Angstroms)
    I     Atom           X                Y                Z
 ----------------------------------------------------------------
    1      H      -0.5396003454     1.1649003260     0.0882286366
    2      C       0.1788866951     0.5682133645     0.6252945742
    3      C       1.1760899588    -0.1925516770    -0.1100290962
    4      O       1.5080258155     1.0073321184     0.5338839151
    5      H      -0.1327205638     0.2470104325     1.6053914340
    6      C       1.2492222693    -0.1916255617    -1.6120028991
    7      H       1.5882490302    -1.0662337231     0.3716124236
    8      H       0.8139286891     0.7160013243    -2.0151045357
    9      H       0.7172428607    -1.0464886824    -2.0201005727
   10      H       2.2831855905    -0.2471579216    -1.9388238797
 ----------------------------------------------------------------
 Nuclear Repulsion Energy =   126.0612830896 hartrees
 There are       16 alpha and       16 beta electrons

                       Distance Matrix (Angstroms)
             H (  1)   C (  2)   C (  3)   O (  4)   H (  5)   C (  6)
   C (  2)  1.077357
   C (  3)  2.196719  1.453918
   O (  4)  2.101478  1.402780  1.401616
   H (  5)  1.819301  1.077432  2.202014  2.101967
   C (  6)  2.816174  2.593930  1.503753  2.471702  3.528993
   H (  7)  3.096128  2.173033  1.079432  2.081452  2.491698  2.194222
   H (  8)  2.541173  2.719711  2.141481  2.657816  3.771484  1.084324
   H (  9)  3.303778  3.145665  2.141990  3.371402  3.942052  1.086433
   H ( 10)  3.751129  3.415788  2.138488  2.879045  4.317669  1.085807
             H (  7)   H (  8)   H (  9)
   H (  8)  3.077719
   H (  9)  2.545453  1.765147
   H ( 10)  2.547928  1.758468  1.760032

 Requested basis set is 6-31G(d)
 There are 28 shells and 72 basis functions
 tim1(1): 
   0.0000000000000000     
 tim1(2): 
   0.0000000000000000     
 A cutoff of  1.0D-11 yielded    404 shell pairs
 There are      2734 function pairs
 Smallest overlap matrix eigenvalue = 3.68E-03
 Guess MOs from SCF MO coefficient file
 Reading MOs from coefficient file
 Reading MOs from coefficient file
 A restricted Hartree-Fock SCF calculation will be
 performed using Pulay DIIS extrapolation
 SCF converges when DIIS error is below 1.0E-08
 ---------------------------------------
  Cycle       Energy         DIIS Error
 ---------------------------------------
    1    -191.9097133845      1.17E-05
    2    -191.9097272818      3.06E-06
    3    -191.9097272920      1.38E-06
    4    -191.9097272936      4.43E-07
    5    -191.9097272939      1.45E-07
    6    -191.9097272940      5.37E-08
    7    -191.9097272940      1.38E-08
    8    -191.9097272940      3.60E-09 Convergence criterion met
 ---------------------------------------
 SCF time:  CPU 0.90 s  wall 0.82 s
 SCF   energy in the final basis set = -191.9097272940
 Total energy in the final basis set = -191.9097272940

 Components of the MP2 correlation energy:
        aaaa  correlation energy =        -0.0712493777 au
        abab  correlation energy =        -0.4232140803 au
        bbbb  correlation energy =        -0.0712493777 au
        non-Brillouin singles    =        -0.0000000000 au

 Total  MP2   correlation energy =        -0.5657128358 au
        MP2         total energy =      -192.4754401298 au

  Entering Z-vector solver.
   1         0           1      0.000495    0.000495
   2         0           1      0.000096    0.000096
   3         0           1      0.000033    0.000033
   4         0           1      0.000006    0.000006
   5         0           1      0.000002    0.000002
   6         1           0      0.000000    0.000000    Roots Converged

 --------------------------------------------------------------

                    Orbital Energies (a.u.)
 --------------------------------------------------------------

 Alpha MOs
 -- Occupied --
-20.568 -11.284 -11.276 -11.222  -1.427  -1.012  -0.908  -0.819
 -0.703  -0.649  -0.589  -0.564  -0.526  -0.519  -0.440  -0.431
 -- Virtual --
  0.248   0.280   0.281   0.293   0.314   0.334   0.339   0.344
  0.428   0.508   0.672   0.730   0.774   0.791   0.836   0.877
  0.899   0.955   1.010   1.083   1.132   1.145   1.166   1.192
  1.209   1.222   1.252   1.292   1.326   1.515   1.655   1.716
  1.745   1.886   1.953   2.060   2.123   2.213   2.299   2.384
  2.469   2.491   2.510   2.636   2.652   2.686   2.753   2.884
  2.951   3.082   3.224   3.319   4.227   4.596   4.693   4.887
 --------------------------------------------------------------

          Ground-State Mulliken Net Atomic Charges

     Atom                 Charge (a.u.)
  ----------------------------------------
      1 H                     0.166856
      2 C                    -0.140416
      3 C                     0.075559
      4 O                    -0.448097
      5 H                     0.168609
      6 C                    -0.511571
      7 H                     0.168277
      8 H                     0.175938
      9 H                     0.166411
     10 H                     0.178434
  ----------------------------------------
  Sum of atomic charges =    -0.000000

 -----------------------------------------------------------------
                    Cartesian Multipole Moments
 -----------------------------------------------------------------
    Charge (ESU x 10^10)
                 0.0000
    Dipole Moment (Debye)
         X      -1.2524      Y      -1.3364      Z      -0.6448
       Tot       1.9417
    Quadrupole Moments (Debye-Ang)
        XX     -27.1832     XY      -3.6123     YY     -26.3620
        XZ      -2.0011     YZ      -0.9476     ZZ     -24.3080
    Octopole Moments (Debye-Ang^2)
       XXX     -77.5505    XXY     -11.8273    XYY     -28.3062
       YYY     -20.7854    XXZ       2.0014    XYZ      -1.8165
       YYZ       4.4726    XZZ     -25.4056    YZZ      -6.6077
       ZZZ      18.3804
    Hexadecapole Moments (Debye-Ang^3)
      XXXX    -230.4553   XXXY     -21.4645   XXYY     -58.0768
      XYYY     -16.6336   YYYY     -89.2043   XXXZ      26.4393
      XXYZ     -10.5010   XYYZ      11.0725   YYYZ     -23.1841
      XXZZ     -70.6707   XYZZ      -4.9892   YYZZ     -46.1088
      XZZZ      33.5750   YZZZ     -23.0278   ZZZZ    -193.1708
 -----------------------------------------------------------------
 DrvMan is completing analytic gradient of the MP2 energy
 MP2 relaxed dipole moment
            1
    1  -0.4927512
    2  -0.5257735
    3  -0.2537008
	Magnitude:	 0.764 au	 1.942 Debye
 MP2 energy read as -192.475440
 Full Analytical Gradient of MP2 Energy (in au.)
             1             2             3             4             5
    1    0.00627574    0.01855177    0.00214458   -0.02845024    0.00331810
    2   -0.00370750    0.00387811    0.01584361   -0.02775792    0.00314686
    3    0.00468987   -0.00296244    0.01785504   -0.00881460   -0.00713541
             6             7             8             9            10
    1    0.00068433   -0.00251159    0.00263960    0.00263587   -0.00528817
    2    0.00142070    0.00784031   -0.00520754    0.00436156    0.00018183
    3   -0.00482433   -0.00361405    0.00110386    0.00226739    0.00143468
 Gradient time:  CPU 0.05 s  wall 0.05 s
 ----------------------------------------------------------------
             Standard Nuclear Orientation (Angstroms)
    I     Atom           X                Y                Z
 ----------------------------------------------------------------
    1      H      -0.5396003454     1.1649003260     0.0862286366
    2      C       0.1788866951     0.5682133645     0.6252945742
    3      C       1.1760899588    -0.1925516770    -0.1100290962
    4      O       1.5080258155     1.0073321184     0.5338839151
    5      H      -0.1327205638     0.2470104325     1.6053914340
    6      C       1.2492222693    -0.1916255617    -1.6120028991
    7      H       1.5882490302    -1.0662337231     0.3716124236
    8      H       0.8139286891     0.7160013243    -2.0151045357
    9      H       0.7172428607    -1.0464886824    -2.0201005727
   10      H       2.2831855905    -0.2471579216    -1.9388238797
 ----------------------------------------------------------------
 Nuclear Repulsion Energy =   126.0587104104 hartrees
 There are       16 alpha and       16 beta electrons

                       Distance Matrix (Angstroms)
             H (  1)   C (  2)   C (  3)   O (  4)   H (  5)   C (  6)
   C (  2)  1.078356
   C (  3)  2.196540  1.453918
   O (  4)  2.101903  1.402780  1.401616
   H (  5)  1.820969  1.077432  2.202014  2.101967
   C (  6)  2.814967  2.593930  1.503753  2.471702  3.528993
   H (  7)  3.096312  2.173033  1.079432  2.081452  2.491698  2.194222
   H (  8)  2.539518  2.719711  2.141481  2.657816  3.771484  1.084324
   H (  9)  3.302502  3.145665  2.141990  3.371402  3.942052  1.086433
   H ( 10)  3.750049  3.415788  2.138488  2.879045  4.317669  1.085807
             H (  7)   H (  8)   H (  9)
   H (  8)  3.077719
   H (  9)  2.545453  1.765147
   H ( 10)  2.547928  1.758468  1.760032

 Requested basis set is 6-31G(d)
 There are 28 shells and 72 basis functions
 tim1(1): 
   0.0000000000000000     
 tim1(2): 
   0.0000000000000000     
 A cutoff of  1.0D-11 yielded    404 shell pairs
 There are      2734 function pairs
 Smallest overlap matrix eigenvalue = 3.68E-03
 Guess MOs from SCF MO coefficient file
 Reading MOs from coefficient file
 Reading MOs from coefficient file
 A restricted Hartree-Fock SCF calculation will be
 performed using Pulay DIIS extrapolation
 SCF converges when DIIS error is below 1.0E-08
 ---------------------------------------
  Cycle       Energy         DIIS Error
 ---------------------------------------
    1    -191.9093173631      3.84E-05
    2    -191.9097253740      6.58E-06
    3    -191.9097254111      2.25E-06
    4    -191.9097254149      7.55E-07
    5    -191.9097254154      2.60E-07
    6    -191.9097254155      8.35E-08
    7    -191.9097254155      2.04E-08
    8    -191.9097254155      6.46E-09 Convergence criterion met
 ---------------------------------------
 SCF time:  CPU 0.91 s  wall 0.84 s
 SCF   energy in the final basis set = -191.9097254155
 Total energy in the final basis set = -191.9097254155

 Components of the MP2 correlation energy:
        aaaa  correlation energy =        -0.0712511523 au
        abab  correlation energy =        -0.4232291488 au
        bbbb  correlation energy =        -0.0712511523 au
        non-Brillouin singles    =        -0.0000000000 au

 Total  MP2   correlation energy =        -0.5657314534 au
        MP2         total energy =      -192.4754568689 au

  Entering Z-vector solver.
   1         0           1      0.000495    0.000495
   2         0           1      0.000096    0.000096
   3         0           1      0.000033    0.000033
   4         0           1      0.000006    0.000006
   5         0           1      0.000002    0.000002
   6         1           0      0.000000    0.000000    Roots Converged

 --------------------------------------------------------------

                    Orbital Energies (a.u.)
 --------------------------------------------------------------

 Alpha MOs
 -- Occupied --
-20.568 -11.284 -11.276 -11.222  -1.427  -1.012  -0.908  -0.819
 -0.703  -0.649  -0.589  -0.564  -0.526  -0.519  -0.440  -0.431
 -- Virtual --
  0.248   0.280   0.281   0.293   0.314   0.334   0.339   0.344
  0.428   0.508   0.672   0.731   0.774   0.791   0.836   0.877
  0.899   0.956   1.010   1.083   1.132   1.145   1.166   1.192
  1.209   1.222   1.252   1.292   1.326   1.515   1.655   1.716
  1.745   1.886   1.953   2.060   2.123   2.213   2.299   2.383
  2.469   2.491   2.510   2.636   2.652   2.686   2.753   2.884
  2.951   3.081   3.224   3.319   4.227   4.596   4.693   4.887
 --------------------------------------------------------------

          Ground-State Mulliken Net Atomic Charges

     Atom                 Charge (a.u.)
  ----------------------------------------
      1 H                     0.166721
      2 C                    -0.140423
      3 C                     0.075566
      4 O                    -0.448049
      5 H                     0.168713
      6 C                    -0.511575
      7 H                     0.168265
      8 H                     0.175925
      9 H                     0.166414
     10 H                     0.178442
  ----------------------------------------
  Sum of atomic charges =     0.000000

 -----------------------------------------------------------------
                    Cartesian Multipole Moments
 -----------------------------------------------------------------
    Charge (ESU x 10^10)
                 0.0000
    Dipole Moment (Debye)
         X      -1.2520      Y      -1.3371      Z      -0.6447
       Tot       1.9419
    Quadrupole Moments (Debye-Ang)
        XX     -27.1851     XY      -3.6110     YY     -26.3646
        XZ      -2.0000     YZ      -0.9492     ZZ     -24.3062
    Octopole Moments (Debye-Ang^2)
       XXX     -77.5494    XXY     -11.8283    XYY     -28.3048
       YYY     -20.7911    XXZ       2.0017    XYZ      -1.8148
       YYZ       4.4716    XZZ     -25.4046    YZZ      -6.6089
       ZZZ      18.3904
    Hexadecapole Moments (Debye-Ang^3)
      XXXX    -230.4609   XXXY     -21.4607   XXYY     -58.0797
      XYYY     -16.6298   YYYY     -89.2179   XXXZ      26.4368
      XXYZ     -10.5002   XYYZ      11.0735   YYYZ     -23.1831
      XXZZ     -70.6702   XYZZ      -4.9883   YYZZ     -46.1103
      XZZZ      33.5727   YZZZ     -23.0225   ZZZZ    -193.1581
 -----------------------------------------------------------------
 DrvMan is completing analytic gradient of the MP2 energy
 MP2 relaxed dipole moment
            1
    1  -0.4925718
    2  -0.5260458
    3  -0.2536426
	Magnitude:	 0.764 au	 1.942 Debye
 MP2 energy read as -192.475457
 Full Analytical Gradient of MP2 Energy (in au.)
             1             2             3             4             5
    1    0.00587740    0.01893031    0.00209292   -0.02844466    0.00339021
    2   -0.00331998    0.00349978    0.01589211   -0.02775314    0.00308511
    3    0.00417153   -0.00243254    0.01781522   -0.00882505   -0.00709557
             6             7             8             9            10
    1    0.00068702   -0.00252116    0.00263956    0.00263597   -0.00528758
    2    0.00142340    0.00783907   -0.00520922    0.00436198    0.00018088
    3   -0.00482937   -0.00361091    0.00110456    0.00226798    0.00143415
 Gradient time:  CPU 0.05 s  wall 0.05 s
 ----------------------------------------------------------------
             Standard Nuclear Orientation (Angstroms)
    I     Atom           X                Y                Z
 ----------------------------------------------------------------
    1      H      -0.5396003454     1.1649003260     0.0872286366
    2      C       0.1798866951     0.5682133645     0.6252945742
    3      C       1.1760899588    -0.1925516770    -0.1100290962
    4      O       1.5080258155     1.0073321184     0.5338839151
    5      H      -0.1327205638     0.2470104325     1.6053914340
    6      C       1.2492222693    -0.1916255617    -1.6120028991
    7      H       1.5882490302    -1.0662337231     0.3716124236
    8      H       0.8139286891     0.7160013243    -2.0151045357
    9      H       0.7172428607    -1.0464886824    -2.0201005727
   10      H       2.2831855905    -0.2471579216    -1.9388238797
 ----------------------------------------------------------------
 Nuclear Repulsion Energy =   126.0777315582 hartrees
 There are       16 alpha and       16 beta electrons

                       Distance Matrix (Angstroms)
             H (  1)   C (  2)   C (  3)   O (  4)   H (  5)   C (  6)
   C (  2)  1.078523
   C (  3)  2.196629  1.453233
   O (  4)  2.101690  1.401833  1.401616
   H (  5)  1.820135  1.077722  2.202014  2.101967
   C (  6)  2.815570  2.593518  1.503753  2.471702  3.528993
   H (  7)  3.096220  2.172385  1.079432  2.081452  2.491698  2.194222
   H (  8)  2.540346  2.719478  2.141481  2.657816  3.771484  1.084324
   H (  9)  3.303140  3.145494  2.141990  3.371402  3.942052  1.086433
   H ( 10)  3.750589  3.415172  2.138488  2.879045  4.317669  1.085807
             H (  7)   H (  8)   H (  9)
   H (  8)  3.077719
   H (  9)  2.545453  1.765147
   H ( 10)  2.547928  1.758468  1.760032

 Requested basis set is 6-31G(d)
 There are 28 shells and 72 basis functions
 tim1(1): 
   0.0000000000000000     
 tim1(2): 
   0.0000000000000000     
 A cutoff of  1.0D-11 yielded    404 shell pairs
 There are      2734 function pairs
 Smallest overlap matrix eigenvalue = 3.68E-03
 Guess MOs from SCF MO coefficient file
 Reading MOs from coefficient file
 Reading MOs from coefficient file
 A restricted Hartree-Fock SCF calculation will be
 performed using Pulay DIIS extrapolation
 SCF converges when DIIS error is below 1.0E-08
 ---------------------------------------
  Cycle       Energy         DIIS Error
 ---------------------------------------
    1    -191.9102361976      7.94E-05
    2    -191.9097234717      1.16E-05
    3    -191.9097235625      5.08E-06
    4    -191.9097235769      1.35E-06
    5    -191.9097235787      5.19E-07
    6    -191.9097235789      1.36E-07
    7    -191.9097235789      4.28E-08
    8    -191.9097235790      9.34E-09 Convergence criterion met
 ---------------------------------------
 SCF time:  CPU 0.92 s  wall 0.84 s
 SCF   energy in the final basis set = -191.9097235790
 Total energy in the final basis set = -191.9097235790

 Components of the MP2 correlation energy:
        aaaa  correlation energy =        -0.0712476608 au
        abab  correlation energy =        -0.4231932223 au
        bbbb  correlation energy =        -0.0712476608 au
        non-Brillouin singles    =        -0.0000000000 au

 Total  MP2   correlation energy =        -0.5656885438 au
        MP2         total energy =      -192.4754121228 au

  Entering Z-vector solver.
   1         0           1      0.000494    0.000494
   2         0           1      0.000096    0.000096
   3         0           1      0.000033    0.000033
   4         0           1      0.000006    0.000006
   5         0           1      0.000002    0.000002
   6         1           0      0.000000    0.000000    Roots Converged

 --------------------------------------------------------------

                    Orbital Energies (a.u.)
 --------------------------------------------------------------

 Alpha MOs
 -- Occupied --
-20.568 -11.284 -11.276 -11.222  -1.427  -1.012  -0.908  -0.819
 -0.703  -0.649  -0.589  -0.565  -0.526  -0.519  -0.440  -0.431
 -- Virtual --
  0.248   0.280   0.281   0.293   0.314   0.334   0.339   0.344
  0.428   0.508   0.672   0.731   0.774   0.791   0.837   0.877
  0.899   0.956   1.010   1.083   1.132   1.145   1.166   1.192
  1.209   1.222   1.251   1.292   1.326   1.515   1.656   1.716
  1.745   1.886   1.953   2.060   2.123   2.213   2.299   2.384
  2.470   2.491   2.510   2.637   2.652   2.686   2.753   2.884
  2.951   3.082   3.224   3.319   4.228   4.596   4.693   4.887
 --------------------------------------------------------------

          Ground-State Mulliken Net Atomic Charges

     Atom                 Charge (a.u.)
  ----------------------------------------
      1 H                     0.166517
      2 C                    -0.140226
      3 C                     0.075449
      4 O                    -0.447742
      5 H                     0.168460
      6 C                    -0.511589
      7 H                     0.168310
      8 H                     0.175954
      9 H                     0.166424
     10 H                     0.178442
  ----------------------------------------
  Sum of atomic charges =     0.000000

 -----------------------------------------------------------------
                    Cartesian Multipole Moments
 -----------------------------------------------------------------
    Charge (ESU x 10^10)
                -0.0000
    Dipole Moment (Debye)
         X      -1.2506      Y      -1.3368      Z      -0.6448
       Tot       1.9409
    Quadrupole Moments (Debye-Ang)
        XX     -27.1841     XY      -3.6090     YY     -26.3624
        XZ      -1.9996     YZ      -0.9469     ZZ     -24.3076
    Octopole Moments (Debye-Ang^2)
       XXX     -77.5638    XXY     -11.8273    XYY     -28.3058
       YYY     -20.7889    XXZ       2.0028    XYZ      -1.8147
       YYZ       4.4739    XZZ     -25.4070    YZZ      -6.6072
       ZZZ      18.3798
    Hexadecapole Moments (Debye-Ang^3)
      XXXX    -230.4741   XXXY     -21.4678   XXYY     -58.0786
      XYYY     -16.6326   YYYY     -89.2107   XXXZ      26.4304
      XXYZ     -10.4997   XYYZ      11.0712   YYYZ     -23.1797
      XXZZ     -70.6691   XYZZ      -4.9891   YYZZ     -46.1074
      XZZZ      33.5658   YZZZ     -23.0220   ZZZZ    -193.1732
 -----------------------------------------------------------------
 DrvMan is completing analytic gradient of the MP2 energy
 MP2 relaxed dipole moment
            1
    1  -0.4920338
    2  -0.5259342
    3  -0.2537030
	Magnitude:	 0.764 au	 1.941 Debye
 MP2 energy read as -192.475412
 Full Analytical Gradient of MP2 Energy (in au.)
             1             2             3             4             5
    1    0.00575527    0.02001476    0.00182536   -0.02896101    0.00322707
    2   -0.00328313    0.00338546    0.01617142   -0.02794550    0.00308916
    3    0.00424198   -0.00286424    0.01805941   -0.00883100   -0.00697780
             6             7             8             9            10
    1    0.00068307   -0.00253743    0.00264180    0.00263690   -0.00528580
    2    0.00141587    0.00783073   -0.00520809    0.00436111    0.00018296
    3   -0.00483122   -0.00360255    0.00110447    0.00226610    0.00143487
 Gradient time:  CPU 0.05 s  wall 0.05 s
 ----------------------------------------------------------------
             Standard Nuclear Orientation (Angstroms)
    I     Atom           X                Y                Z
 ----------------------------------------------------------------
    1      H      -0.5396003454     1.1649003260     0.0872286366
    2      C       0.1778866951     0.5682133645     0.6252945742
    3      C       1.1760899588    -0.1925516770    -0.1100290962
    4      O       1.5080258155     1.0073321184     0.5338839151
    5      H      -0.1327205638     0.2470104325     1.6053914340
    6      C       1.2492222693    -0.1916255617    -1.6120028991
    7      H       1.5882490302    -1.0662337231     0.3716124236
    8      H       0.8139286891     0.7160013243    -2.0151045357
    9      H       0.7172428607    -1.0464886824    -2.0201005727
   10      H       2.2831855905    -0.2471579216    -1.9388238797
 ----------------------------------------------------------------
 Nuclear Repulsion Energy =   126.0422795475 hartrees
 There are       16 alpha and       16 beta electrons

                       Distance Matrix (Angstroms)
             H (  1)   C (  2)   C (  3)   O (  4)   H (  5)   C (  6)
   C (  2)  1.077190
   C (  3)  2.196629  1.454604
   O (  4)  2.101690  1.403728  1.401616
   H (  5)  1.820135  1.077143  2.202014  2.101967
   C (  6)  2.815570  2.594343  1.503753  2.471702  3.528993
   H (  7)  3.096220  2.173682  1.079432  2.081452  2.491698  2.194222
   H (  8)  2.540346  2.719945  2.141481  2.657816  3.771484  1.084324
   H (  9)  3.303140  3.145836  2.141990  3.371402  3.942052  1.086433
   H ( 10)  3.750589  3.416404  2.138488  2.879045  4.317669  1.085807
             H (  7)   H (  8)   H (  9)
   H (  8)  3.077719
   H (  9)  2.545453  1.765147
   H ( 10)  2.547928  1.758468  1.760032

 Requested basis set is 6-31G(d)
 There are 28 shells and 72 basis functions
 tim1(1): 
   0.0000000000000000     
 tim1(2): 
   0.0000000000000000     
 A cutoff of  1.0D-11 yielded    404 shell pairs
 There are      2734 function pairs
 Smallest overlap matrix eigenvalue = 3.69E-03
 Guess MOs from SCF MO coefficient file
 Reading MOs from coefficient file
 Reading MOs from coefficient file
 A restricted Hartree-Fock SCF calculation will be
 performed using Pulay DIIS extrapolation
 SCF converges when DIIS error is below 1.0E-08
 ---------------------------------------
  Cycle       Energy         DIIS Error
 ---------------------------------------
    1    -191.9091119653      1.66E-04
    2    -191.9097267179      2.33E-05
    3    -191.9097271012      1.03E-05
    4    -191.9097271590      2.98E-06
    5    -191.9097271671      1.00E-06
    6    -191.9097271681      2.79E-07
    7    -191.9097271682      8.78E-08
    8    -191.9097271682      2.05E-08
    9    -191.9097271682      5.93E-09 Convergence criterion met
 ---------------------------------------
 SCF time:  CPU 1.01 s  wall 0.93 s
 SCF   energy in the final basis set = -191.9097271682
 Total energy in the final basis set = -191.9097271682

 Components of the MP2 correlation energy:
        aaaa  correlation energy =        -0.0712528752 au
        abab  correlation energy =        -0.4232500458 au
        bbbb  correlation energy =        -0.0712528752 au
        non-Brillouin singles    =        -0.0000000000 au

 Total  MP2   correlation energy =        -0.5657557962 au
        MP2         total energy =      -192.4754829644 au

  Entering Z-vector solver.
   1         0           1      0.000495    0.000495
   2         0           1      0.000096    0.000096
   3         0           1      0.000033    0.000033
   4         0           1      0.000006    0.000006
   5         0           1      0.000002    0.000002
   6         1           0      0.000000    0.000000    Roots Converged

 --------------------------------------------------------------

                    Orbital Energies (a.u.)
 --------------------------------------------------------------

 Alpha MOs
 -- Occupied --
-20.568 -11.284 -11.276 -11.222  -1.426  -1.012  -0.908  -0.819
 -0.703  -0.649  -0.589  -0.564  -0.526  -0.519  -0.440  -0.430
 -- Virtual --
  0.248   0.280   0.281   0.293   0.314   0.334   0.339   0.344
  0.428   0.508   0.672   0.730   0.774   0.791   0.836   0.877
  0.899   0.955   1.010   1.084   1.132   1.145   1.166   1.192
  1.209   1.222   1.252   1.292   1.326   1.514   1.655   1.716
  1.745   1.886   1.952   2.060   2.123   2.213   2.299   2.384
  2.468   2.491   2.509   2.636   2.652   2.686   2.753   2.883
  2.951   3.081   3.224   3.318   4.227   4.596   4.693   4.887
 --------------------------------------------------------------

          Ground-State Mulliken Net Atomic Charges

     Atom                 Charge (a.u.)
  ----------------------------------------
      1 H                     0.167059
      2 C                    -0.140614
      3 C                     0.075677
      4 O                    -0.448403
      5 H                     0.168862
      6 C                    -0.511557
      7 H                     0.168232
      8 H                     0.175909
      9 H                     0.166401
     10 H                     0.178434
  ----------------------------------------
  Sum of atomic charges =    -0.000000

 -----------------------------------------------------------------
                    Cartesian Multipole Moments
 -----------------------------------------------------------------
    Charge (ESU x 10^10)
                -0.0000
    Dipole Moment (Debye)
         X      -1.2538      Y      -1.3367      Z      -0.6447
       Tot       1.9428
    Quadrupole Moments (Debye-Ang)
        XX     -27.1842     XY      -3.6144     YY     -26.3641
        XZ      -2.0015     YZ      -0.9499     ZZ     -24.3066
    Octopole Moments (Debye-Ang^2)
       XXX     -77.5360    XXY     -11.8283    XYY     -28.3051
       YYY     -20.7876    XXZ       2.0003    XYZ      -1.8166
       YYZ       4.4703    XZZ     -25.4032    YZZ      -6.6094
       ZZZ      18.3910
    Hexadecapole Moments (Debye-Ang^3)
      XXXX    -230.4421   XXXY     -21.4574   XXYY     -58.0779
      XYYY     -16.6308   YYYY     -89.2115   XXXZ      26.4458
      XXYZ     -10.5015   XYYZ      11.0748   YYYZ     -23.1876
      XXZZ     -70.6718   XYZZ      -4.9885   YYZZ     -46.1116
      XZZZ      33.5819   YZZZ     -23.0282   ZZZZ    -193.1557
 -----------------------------------------------------------------
 DrvMan is completing analytic gradient of the MP2 energy
 MP2 relaxed dipole moment
            1
    1  -0.4932849
    2  -0.5258856
    3  -0.2536413
	Magnitude:	 0.764 au	 1.943 Debye
 MP2 energy read as -192.475483
 Full Analytical Gradient of MP2 Energy (in au.)
             1             2             3             4             5
    1    0.00639808    0.01747121    0.00241125   -0.02793685    0.00348099
    2   -0.00374511    0.00399343    0.01556526   -0.02756657    0.00314264
    3    0.00462051   -0.00253292    0.01761175   -0.00880841   -0.00725322
             6             7             8             9            10
    1    0.00068831   -0.00249534    0.00263737    0.00263494   -0.00528995
    2    0.00142820    0.00784865   -0.00520868    0.00436243    0.00017976
    3   -0.00482251   -0.00362239    0.00110396    0.00226926    0.00143396
 Gradient time:  CPU 0.05 s  wall 0.05 s
 ----------------------------------------------------------------
             Standard Nuclear Orientation (Angstroms)
    I     Atom           X                Y                Z
 ----------------------------------------------------------------
    1      H      -0.5396003454     1.1649003260     0.0872286366
    2      C       0.1788866951     0.5692133645     0.6252945742
    3      C       1.1760899588    -0.1925516770    -0.1100290962
    4      O       1.5080258155     1.0073321184     0.5338839151
    5      H      -0.1327205638     0.2470104325     1.6053914340
    6      C       1.2492222693    -0.1916255617    -1.6120028991
    7      H       1.5882490302    -1.0662337231     0.3716124236
    8      H       0.8139286891     0.7160013243    -2.0151045357
    9      H       0.7172428607    -1.0464886824    -2.0201005727
   10      H       2.2831855905    -0.2471579216    -1.9388238797
 ----------------------------------------------------------------
 Nuclear Repulsion Energy =   126.0584733058 hartrees
 There are       16 alpha and       16 beta electrons

                       Distance Matrix (Angstroms)
             H (  1)   C (  2)   C (  3)   O (  4)   H (  5)   C (  6)
   C (  2)  1.077303
   C (  3)  2.196629  1.454442
   O (  4)  2.101690  1.402467  1.401616
   H (  5)  1.820135  1.077731  2.202014  2.101967
   C (  6)  2.815570  2.594223  1.503753  2.471702  3.528993
   H (  7)  3.096220  2.173786  1.079432  2.081452  2.491698  2.194222
   H (  8)  2.540346  2.719657  2.141481  2.657816  3.771484  1.084324
   H (  9)  3.303140  3.146178  2.141990  3.371402  3.942052  1.086433
   H ( 10)  3.750589  3.416027  2.138488  2.879045  4.317669  1.085807
             H (  7)   H (  8)   H (  9)
   H (  8)  3.077719
   H (  9)  2.545453  1.765147
   H ( 10)  2.547928  1.758468  1.760032

 Requested basis set is 6-31G(d)
 There are 28 shells and 72 basis functions
 tim1(1): 
   0.0000000000000000     
 tim1(2): 
   0.0000000000000000     
 A cutoff of  1.0D-11 yielded    404 shell pairs
 There are      2734 function pairs
 Smallest overlap matrix eigenvalue = 3.69E-03
 Guess MOs from SCF MO coefficient file
 Reading MOs from coefficient file
 Reading MOs from coefficient file
 A restricted Hartree-Fock SCF calculation will be
 performed using Pulay DIIS extrapolation
 SCF converges when DIIS error is below 1.0E-08
 ---------------------------------------
  Cycle       Energy         DIIS Error
 ---------------------------------------
    1    -191.9100461485      9.81E-05
    2    -191.9097237133      1.51E-05
    3    -191.9097238636      7.37E-06
    4    -191.9097238927      2.22E-06
    5    -191.9097238972      5.72E-07
    6    -191.9097238977      1.69E-07
    7    -191.9097238977      6.34E-08
    8    -191.9097238977      1.23E-08
    9    -191.9097238977      3.37E-09 Convergence criterion met
 ---------------------------------------
 SCF time:  CPU 0.97 s  wall 0.90 s
 SCF   energy in the final basis set = -191.9097238977
 Total energy in the final basis set = -191.9097238977

 Components of the MP2 correlation energy:
        aaaa  correlation energy =        -0.0712491310 au
        abab  correlation energy =        -0.4232188953 au
        bbbb  correlation energy =        -0.0712491310 au
        non-Brillouin singles    =        -0.0000000000 au

 Total  MP2   correlation energy =        -0.5657171574 au
        MP2         total energy =      -192.4754410551 au

  Entering Z-vector solver.
   1         0           1      0.000494    0.000494
   2         0           1      0.000096    0.000096
   3         0           1      0.000033    0.000033
   4         0           1      0.000006    0.000006
   5         0           1      0.000002    0.000002
   6         1           0      0.000000    0.000000    Roots Converged

 --------------------------------------------------------------

                    Orbital Energies (a.u.)
 --------------------------------------------------------------

 Alpha MOs
 -- Occupied --
-20.568 -11.284 -11.276 -11.222  -1.427  -1.012  -0.908  -0.819
 -0.703  -0.649  -0.589  -0.565  -0.526  -0.519  -0.440  -0.430
 -- Virtual --
  0.248   0.280   0.281   0.293   0.314   0.334   0.339   0.344
  0.428   0.508   0.672   0.731   0.774   0.791   0.836   0.877
  0.899   0.955   1.010   1.083   1.132   1.145   1.166   1.192
  1.209   1.222   1.252   1.292   1.326   1.514   1.655   1.716
  1.745   1.886   1.953   2.060   2.123   2.213   2.299   2.383
  2.469   2.491   2.509   2.637   2.652   2.686   2.753   2.884
  2.951   3.081   3.224   3.319   4.228   4.596   4.693   4.887
 --------------------------------------------------------------

          Ground-State Mulliken Net Atomic Charges

     Atom                 Charge (a.u.)
  ----------------------------------------
      1 H                     0.166830
      2 C                    -0.140280
      3 C                     0.075405
      4 O                    -0.447970
      5 H                     0.168517
      6 C                    -0.511546
      7 H                     0.168292
      8 H                     0.175917
      9 H                     0.166414
     10 H                     0.178421
  ----------------------------------------
  Sum of atomic charges =     0.000000

 -----------------------------------------------------------------
                    Cartesian Multipole Moments
 -----------------------------------------------------------------
    Charge (ESU x 10^10)
                -0.0000
    Dipole Moment (Debye)
         X      -1.2519      Y      -1.3358      Z      -0.6452
       Tot       1.9411
    Quadrupole Moments (Debye-Ang)
        XX     -27.1832     XY      -3.6118     YY     -26.3620
        XZ      -1.9990     YZ      -0.9486     ZZ     -24.3095
    Octopole Moments (Debye-Ang^2)
       XXX     -77.5506    XXY     -11.8337    XYY     -28.3045
       YYY     -20.8015    XXZ       2.0034    XYZ      -1.8149
       YYZ       4.4718    XZZ     -25.4053    YZZ      -6.6144
       ZZZ      18.3816
    Hexadecapole Moments (Debye-Ang^3)
      XXXX    -230.4565   XXXY     -21.4702   XXYY     -58.0835
      XYYY     -16.6352   YYYY     -89.2406   XXXZ      26.4445
      XXYZ     -10.5040   XYYZ      11.0741   YYYZ     -23.1928
      XXZZ     -70.6734   XYZZ      -4.9886   YYZZ     -46.1163
      XZZZ      33.5794   YZZZ     -23.0376   ZZZZ    -193.1813
 -----------------------------------------------------------------
 DrvMan is completing analytic gradient of the MP2 energy
 MP2 relaxed dipole moment
            1
    1  -0.4925189
    2  -0.5255627
    3  -0.2538604
	Magnitude:	 0.764 au	 1.941 Debye
 MP2 energy read as -192.475441
 Full Analytical Gradient of MP2 Energy (in au.)
             1             2             3             4             5
    1    0.00629238    0.01843747    0.00234535   -0.02858056    0.00332263
    2   -0.00379706    0.00444788    0.01566914   -0.02787218    0.00297618
[...]
    Atom      X          Y          Z
     1   -1.053777753371528e-04  -4.932651614948952e-05  -1.117109571402998e-04
     2   -3.523382356851269e-04  -7.919834468894536e-04  -3.343435633779890e-04
     3    1.364769422019694e-03   9.936013972424666e-04   1.879050619095358e-03
     4    5.319619372031628e-04   1.953506893411190e-03  -7.350050565732825e-04
     5    1.259863277173825e-05  -1.822488579805399e-05   3.772951551024708e-05
     6   -1.138338819027992e-01  -2.335731184811134e-01  -8.446596498304948e-02
     7    8.582794512654776e-05  -1.585050638479713e-04  -5.785383504099538e-04
     8   -1.566338984449668e-02  -1.936146002599404e-02  -1.177115533193402e-02
     9    1.251298498509967e-01   2.484715187533313e-01   9.431376806099119e-02
    10    2.829999383441971e-03   2.535429209186501e-03   1.765943765155175e-03

Order 1, Length 30
    Atom      X          Y          Z
     1    4.251645215914793e-04  -1.106718968737569e-04  -1.547614791376809e-04
     2   -8.382079307842335e-04  -9.162409847348681e-04   1.798656303554559e-03
     3   -1.813282771719091e-02  -3.052600790996261e-02  -7.739585264081204e-03
     4    9.688832172433371e-04  -4.780247643540004e-04  -9.876830087320069e-03
     5    2.364554654309560e-04   1.960670098068970e-04  -2.764978609298796e-05
     6   -5.367066787236367e-02  -8.378213607575674e-02  -9.023361406627431e-02
     7    1.304660210366099e-04   1.423191063867105e-03   1.029697710486770e-03
     8    7.989349290977350e-03   1.047333188792113e-02   5.192204376530259e-03
     9    5.801722110892099e-02   9.431376806099119e-02   9.596655730694920e-02
    10    4.873911133671197e-03   9.406242150120335e-03   4.045156533093599e-03


    10 Order 1, Length 30
    Atom      X          Y          Z
     1    1.519625850439517e-04  -3.192057093996661e-04  -1.575426179867830e-04
     2    1.104353393658349e-03  -1.168710355702600e-03  -6.882379848060969e-04
     3    1.249064590466775e-03  -1.561312600013420e-04  -8.841889127125079e-04
     4    5.825185425131923e-04   1.396666582353439e-03   1.291437612092679e-03
     5    2.730878736804624e-04   1.044576525378044e-04  -6.875839053985494e-05
     6   -3.215289627747991e-01   1.481425612012346e-02   8.126497164939547e-02
     7    2.347738712528163e-04  -5.446019907616741e-05   5.445987153934650e-04
     8   -1.117930719146900e-02  -1.469459361543523e-03   3.705669087795057e-03
     9   -1.439540993115324e-02   2.829999383441971e-03   4.873911133671197e-03
    10    3.435078263645794e-01  -1.597777742245186e-02  -8.988188198867580e-02

Order 1, Length 30
    Atom      X          Y          Z
     1   -3.049300269016382e-04   3.835030604901144e-04   2.502490519296516e-04
     2    8.455299250877441e-04   5.448069383328897e-05  -1.110491047735390e-03
     3   -3.449201320493662e-04   3.662456435644150e-05  -2.790799263149939e-04
     4    4.886568272601450e-04   5.359082928677937e-04   8.078447399961009e-04
     5   -2.474567049444986e-04  -1.019936183865048e-04  -2.305708553371373e-04
     6    1.459545532641291e-02  -5.263689477415814e-02  -3.379753209344548e-03
     7   -4.586841137094175e-04  -1.673154599861991e-04  -1.271962785085100e-04
     8    2.887158362309855e-02   1.922495041507198e-04  -9.710277347204262e-03
     9   -2.746761970027685e-02   2.535429209186501e-03   9.406242150120335e-03
    10   -1.597777742245186e-02   4.916763274524562e-02   4.372991691296520e-03

Order 1, Length 30
    Atom      X          Y          Z
     1   -5.514734847834755e-06   1.896390708209648e-04   1.390765389689109e-04
     2    2.384346331897118e-04   3.437595809980687e-03  -6.281557267823341e-03
     3    3.883137903294875e-02  -4.022195626458570e-03  -1.348682976980950e-02
     4   -2.645861414010478e-03   9.771495675060305e-05   4.265370496859782e-03
     5    3.976639905741270e-05  -1.808529464298819e-03  -7.034449117147660e-04
     6    8.103020149860443e-02  -3.956896408446707e-03  -7.328433708482450e-02
     7   -8.263778693124323e-04   1.357535124355327e-04   1.275159757486253e-03
     8   -1.308890045434716e-02  -2.123162845557286e-04   3.813918670880290e-03
     9   -1.369120764083790e-02   1.765943765155175e-03   4.045156533093599e-03
    10   -8.988188198867580e-02   4.372991691296520e-03   8.021713876120440e-02




 # Finishing finite difference calculation for IDERIV #
 ######################################################
 ######################################################
 Requested basis set is 6-31G(d)
 There are 28 shells and 72 basis functions
 **********************************************************************
 **                                                                  **
 **                       VIBRATIONAL ANALYSIS                       **
 **                       --------------------                       **
 **                                                                  **
 **        VIBRATIONAL FREQUENCIES (CM**-1) AND NORMAL MODES         **
 **     FORCE CONSTANTS (mDYN/ANGSTROM) AND REDUCED MASSES (AMU)     **
 **                  INFRARED INTENSITIES (KM/MOL)                   **
 **                                                                  **
 **********************************************************************


 Mode:                 1                      2                      3
 Frequency:      -151.18                 322.73                 383.80
 Force Cnst:      0.0147                 0.1424                 0.1935
 Red. Mass:       1.0920                 2.3207                 2.2297
 IR Active:          YES                    YES                    YES
 IR Intens:        0.546                  4.062                  4.232
 Raman Active:       YES                    YES                    YES
               X      Y      Z        X      Y      Z        X      Y      Z
 H          0.042  0.094  0.002    0.166 -0.020 -0.423   -0.022  0.218  0.346
 C          0.002  0.047  0.002   -0.002 -0.011 -0.186   -0.006  0.006  0.087
 C         -0.044 -0.013 -0.004    0.167  0.038  0.020   -0.030  0.160 -0.120
 O          0.030 -0.039  0.002    0.024  0.004  0.167   -0.006  0.019  0.143
 H         -0.021  0.066  0.001   -0.304  0.013 -0.278    0.047 -0.325 -0.001
 C          0.003  0.007 -0.001   -0.126 -0.017  0.003    0.036 -0.118 -0.137
 H         -0.090 -0.038 -0.009    0.130  0.020  0.012   -0.094  0.094 -0.176
 H         -0.479 -0.252 -0.063   -0.367 -0.109  0.056    0.062 -0.280 -0.529
 H          0.500 -0.301 -0.002   -0.220 -0.099  0.290    0.050 -0.281  0.181
 H          0.052  0.570  0.060   -0.246  0.024 -0.379    0.050 -0.299 -0.065
 TransDip  -0.010  0.021  0.003   -0.018 -0.019 -0.059   -0.012 -0.004 -0.065

 Mode:                 4                      5                      6
 Frequency:       827.66                 902.96                 926.34
 Force Cnst:      0.8751                 0.5867                 1.3049
 Red. Mass:       2.1683                 1.2213                 2.5810
 IR Active:          YES                    YES                    YES
 IR Intens:        5.525                  0.253                 28.549
 Raman Active:       YES                    YES                    YES
               X      Y      Z        X      Y      Z        X      Y      Z
 H         -0.082  0.166  0.248   -0.038  0.312  0.352    0.033 -0.295 -0.185
 C         -0.048 -0.093 -0.109    0.026  0.055 -0.021    0.150 -0.059 -0.080
 C         -0.026  0.118 -0.036    0.022 -0.055 -0.002   -0.162 -0.083 -0.026
 O          0.090 -0.020 -0.086   -0.047  0.033  0.008    0.065  0.181  0.103
 H          0.117 -0.594 -0.228    0.121 -0.389 -0.127   -0.036 -0.398 -0.250
 C         -0.015  0.056  0.204    0.054 -0.061 -0.021   -0.096 -0.055  0.001
 H         -0.330 -0.044 -0.058   -0.247 -0.034  0.270   -0.092 -0.002  0.028
 H         -0.030 -0.038  0.022   -0.139  0.054  0.439    0.149  0.070  0.017
 H         -0.022 -0.058  0.456   -0.111  0.108 -0.155    0.153  0.021 -0.474
 H         -0.016 -0.068  0.230   -0.054  0.149 -0.392    0.065  0.083  0.483
 TransDip  -0.071 -0.026  0.005   -0.008  0.011 -0.009   -0.055 -0.142 -0.079

 Mode:                 7                      8                      9
 Frequency:      1056.95                1058.74                1150.71
 Force Cnst:      0.8506                 1.6760                 1.0674
 Red. Mass:       1.2923                 2.5378                 1.3682
 IR Active:          YES                    YES                    YES
 IR Intens:        6.747                 17.253                  4.591
 Raman Active:       YES                    YES                    YES
               X      Y      Z        X      Y      Z        X      Y      Z
 H          0.230  0.436  0.119   -0.244 -0.291 -0.080   -0.087  0.287  0.355
 C         -0.083 -0.028  0.013   -0.182 -0.121  0.006   -0.003 -0.046 -0.116
 C          0.041  0.064  0.012    0.002  0.111  0.127    0.074 -0.012 -0.023
 O          0.034 -0.030 -0.024    0.175  0.043 -0.001   -0.041  0.013  0.054
 H         -0.273 -0.108 -0.075    0.050  0.202  0.175    0.551  0.479  0.228
 C         -0.060 -0.070 -0.003    0.017 -0.052 -0.125   -0.062 -0.014  0.016
 H          0.474  0.287  0.050   -0.603 -0.092  0.296   -0.137 -0.149 -0.089
 H          0.119  0.094  0.170   -0.005  0.045  0.094    0.098  0.042 -0.022
 H          0.079  0.046 -0.407   -0.023  0.066 -0.318    0.091 -0.031 -0.136
 H          0.040  0.131  0.269   -0.006  0.128 -0.234    0.025  0.023  0.280
 TransDip   0.020  0.075  0.031   -0.129 -0.024  0.024    0.042  0.053 -0.010

 Mode:                10                     11                     12
 Frequency:      1175.71                1194.42                1223.14
 Force Cnst:      1.1821                 1.6332                 1.6430
 Red. Mass:       1.4515                 1.9430                 1.8639
 IR Active:          YES                    YES                    YES
 IR Intens:        3.583                  2.951                  5.053
 Raman Active:       YES                    YES                    YES
               X      Y      Z        X      Y      Z        X      Y      Z
 H          0.587  0.503  0.020   -0.062  0.111  0.125   -0.216  0.188  0.317
 C          0.027 -0.141  0.037   -0.006  0.065 -0.015   -0.079 -0.026 -0.091
 C         -0.025 -0.055  0.015    0.114 -0.076  0.185   -0.139 -0.118  0.073
 O         -0.011  0.088 -0.028   -0.025 -0.013 -0.039    0.093  0.049  0.030
 H         -0.376  0.237  0.043   -0.008 -0.447 -0.179    0.204  0.050  0.022
 C          0.025  0.043 -0.015   -0.086  0.094 -0.092    0.060  0.058 -0.034
 H         -0.266 -0.177  0.007   -0.129 -0.160  0.276    0.670  0.226  0.002
 H         -0.050 -0.042 -0.120    0.148 -0.036 -0.636   -0.142 -0.096 -0.160
 H         -0.019 -0.022  0.165    0.188 -0.091 -0.080   -0.080  0.008  0.223
 H         -0.010 -0.081 -0.100    0.000 -0.148  0.184   -0.028 -0.128 -0.266
 TransDip  -0.025 -0.043  0.034    0.033 -0.007  0.044   -0.065 -0.032 -0.004

 Mode:                13                     14                     15
 Frequency:      1354.68                1446.60                1504.00
 Force Cnst:      1.4379                 1.5501                 2.0627
 Red. Mass:       1.3299                 1.2572                 1.5477
 IR Active:          YES                    YES                    YES
 IR Intens:        4.487                  4.600                 18.655
 Raman Active:       YES                    YES                    YES
               X      Y      Z        X      Y      Z        X      Y      Z
 H          0.181 -0.018 -0.095   -0.111 -0.026  0.081    0.368  0.100 -0.311
 C          0.088 -0.055 -0.037   -0.014  0.011  0.010    0.030 -0.010 -0.029
 C         -0.060  0.065 -0.004    0.023 -0.038 -0.021   -0.064  0.080  0.153
 O         -0.039 -0.066  0.001    0.015  0.010  0.004   -0.045 -0.024 -0.013
 H          0.221  0.102  0.046   -0.133  0.019 -0.017    0.483 -0.221  0.019
 C         -0.001  0.030 -0.016   -0.009  0.017 -0.138    0.034 -0.044 -0.080
 H         -0.045  0.519  0.763   -0.023  0.031  0.154    0.097 -0.154 -0.394
 H         -0.025 -0.018 -0.105   -0.078  0.232  0.460   -0.034  0.009  0.086
 H         -0.022  0.013  0.050   -0.073 -0.250  0.531   -0.314  0.070  0.145
 H         -0.001 -0.019  0.007    0.181 -0.049  0.508    0.112  0.272  0.135
 TransDip   0.045  0.045 -0.023    0.017 -0.048  0.046    0.000  0.079  0.114

 Mode:                16                     17                     18
 Frequency:      1538.88                1553.29                1606.01
 Force Cnst:      1.4621                 1.4932                 2.8799
 Red. Mass:       1.0479                 1.0504                 1.8951
 IR Active:          YES                    YES                    YES
 IR Intens:        4.480                  5.778                  9.754
 Raman Active:       YES                    YES                    YES
               X      Y      Z        X      Y      Z        X      Y      Z
 H          0.093  0.024 -0.093   -0.140 -0.028  0.158   -0.348 -0.111  0.519
 C         -0.007 -0.002  0.001    0.013 -0.002 -0.003    0.170 -0.043 -0.077
 C         -0.030  0.001  0.010    0.009 -0.027 -0.019   -0.059  0.119  0.137
 O         -0.001  0.001  0.001    0.007  0.004 -0.001   -0.040 -0.050 -0.024
 H          0.123 -0.045  0.023   -0.194  0.083 -0.031   -0.522  0.272 -0.184
 C         -0.051 -0.005 -0.000   -0.004 -0.048  0.011    0.005 -0.010 -0.032
 H          0.038  0.011 -0.032   -0.012  0.022  0.090    0.022 -0.051 -0.250
 H          0.541  0.337  0.139    0.365  0.003 -0.312   -0.009  0.063  0.146
 H          0.410 -0.380  0.205   -0.388  0.102  0.236    0.123 -0.067 -0.072
 H         -0.147  0.100 -0.384    0.034  0.670  0.013   -0.021 -0.098 -0.114
 TransDip   0.065  0.011  0.017   -0.002  0.072 -0.028    0.045  0.063  0.064

 Mode:                19                     20                     21
 Frequency:      3178.80                3262.88                3269.98
 Force Cnst:      6.1664                 6.6000                 6.9486
 Red. Mass:       1.0358                 1.0522                 1.1029
 IR Active:          YES                    YES                    YES
 IR Intens:       12.224                 20.572                 15.726
 Raman Active:       YES                    YES                    YES
               X      Y      Z        X      Y      Z        X      Y      Z
 H          0.000  0.000  0.001   -0.459  0.396 -0.370    0.012 -0.011  0.009
 C          0.000 -0.000 -0.000    0.055 -0.018 -0.024   -0.001  0.000  0.000
 C          0.001 -0.001 -0.001    0.002 -0.005  0.009   -0.002  0.001 -0.001
 O          0.000  0.000  0.000    0.000 -0.001 -0.001    0.000  0.000  0.000
 H         -0.001  0.000  0.004   -0.179 -0.215  0.627    0.005  0.006 -0.017
 C         -0.004  0.007  0.050   -0.005  0.003 -0.001   -0.081 -0.045 -0.003
 H         -0.006  0.013 -0.004   -0.050  0.103 -0.057    0.009 -0.017  0.009
 H         -0.210  0.435 -0.182    0.018 -0.039  0.016   -0.034  0.030 -0.017
 H         -0.310 -0.492 -0.226    0.001  0.004  0.001    0.334  0.553  0.262
 H          0.560 -0.028 -0.164    0.036 -0.001 -0.011    0.674 -0.046 -0.211
 TransDip  -0.012  0.028  0.108    0.136 -0.032 -0.041   -0.113 -0.058 -0.001

 Mode:                22                     23                     24
 Frequency:      3278.10                3292.85                3359.56
 Force Cnst:      6.9377                 7.0142                 7.4511
 Red. Mass:       1.0958                 1.0980                 1.1205
 IR Active:          YES                    YES                    YES
 IR Intens:        4.983                 34.863                 28.292
 Raman Active:       YES                    YES                    YES
               X      Y      Z        X      Y      Z        X      Y      Z
 H          0.081 -0.067  0.067    0.053 -0.042  0.046    0.450 -0.384  0.338
 C         -0.010  0.005  0.000   -0.007  0.005 -0.004   -0.021  0.050 -0.085
 C          0.025 -0.049  0.028    0.024 -0.048  0.027   -0.003  0.006 -0.003
 O          0.000  0.000 -0.001    0.000  0.000 -0.001    0.000 -0.001  0.001
 H          0.015  0.016 -0.056   -0.006 -0.007  0.013   -0.202 -0.209  0.659
 C         -0.031  0.055 -0.006    0.032 -0.060  0.003   -0.001  0.002  0.000
 H         -0.276  0.573 -0.325   -0.263  0.546 -0.313    0.036 -0.063  0.033
 H          0.237 -0.494  0.215   -0.247  0.514 -0.227    0.007 -0.015  0.008
 H         -0.115 -0.165 -0.078    0.135  0.197  0.101   -0.003 -0.005 -0.003
 H          0.255 -0.003 -0.078   -0.262  0.003  0.084    0.005 -0.001 -0.000
 TransDip  -0.024 -0.037  0.057    0.066 -0.171  0.048   -0.028  0.089 -0.143

 STANDARD THERMODYNAMIC QUANTITIES AT   298.15 K  AND     1.00 ATM

   This Molecule has  1 Imaginary Frequencies
   Zero point vibrational energy:       55.566 kcal/mol

   Atom    1 Element H  Has Mass    1.00783
   Atom    2 Element C  Has Mass   12.00000
   Atom    3 Element C  Has Mass   12.00000
   Atom    4 Element O  Has Mass   15.99491
   Atom    5 Element H  Has Mass    1.00783
   Atom    6 Element C  Has Mass   12.00000
   Atom    7 Element H  Has Mass    1.00783
   Atom    8 Element H  Has Mass    1.00783
   Atom    9 Element H  Has Mass    1.00783
   Atom   10 Element H  Has Mass    1.00783
   Molecular Mass:    58.041890 amu
   Principal axes and moments of inertia in amu*Bohr^2:
                             1           2           3
    Eigenvalues --       96.02810   267.71442   298.55506
          X              -0.20451     0.93605    -0.28633
          Y               0.40802     0.34741     0.84429
          Z               0.88977     0.05584    -0.45297
   Rotational Symmetry Number is   1
   The Molecule is an Asymmetric Top
   Translational Enthalpy:        0.889 kcal/mol
   Rotational Enthalpy:           0.889 kcal/mol
   Vibrational Enthalpy:         56.226 kcal/mol
   gas constant (RT):             0.592 kcal/mol
   Translational Entropy:        38.096  cal/mol.K
   Rotational Entropy:           23.555  cal/mol.K
   Vibrational Entropy:           3.169  cal/mol.K

   Total Enthalpy:               58.596 kcal/mol
   Total Entropy:                64.820  cal/mol.K

 ======================================================================

 STANDARD THERMODYNAMIC QUANTITIES FOR ANHARMONIC VIBRATION -- TOSH

   Zero point vibrational energy: ************ kcal/mol

   Vibrational Enthalpy:       Infinity kcal/mol
   Vibrational Entropy:             NaN  cal/mol.K

   Total Enthalpy:             Infinity kcal/mol
   Total Entropy:                   NaN  cal/mol.K

 ======================================================================

 STANDARD THERMODYNAMIC QUANTITIES FOR ANHARMONIC VIBRATION -- VPT2

   Zero point vibrational energy: ************ kcal/mol

   Vibrational Enthalpy:       Infinity kcal/mol
   Vibrational Entropy:             NaN  cal/mol.K

   Total Enthalpy:             Infinity kcal/mol
   Total Entropy:                   NaN  cal/mol.K

 ======================================================================

Archival summary:
1\1\copper\FREQ\MP2\6-31G*\136\eric\SatJul920:20:262016SatJul920:20:262016\0\\#,FREQ,MP2,6-31G*,\\0,1\O\C,1,1.40162\H,2,1.07943,1,113.421\C,1,1.40278,2,62.4557,3,108.871,0\H,4,1.07743,1,115.254,2,-111.315,0\H,4,1.07786,1,115.2,2,110.702,0\C,2,1.50375,1,116.54,3,137.496,0\H,7,1.08432,2,110.628,1,43.4205,0\H,7,1.08581,2,110.299,1,-76.3182,0\H,7,1.08643,2,110.542,1,164.015,0\\HF=-191.909727\MP2=-192.475451\\@

 Total job time:  200.04s(wall), 205.93s(cpu) 
 Sat Jul  9 20:20:26 2016

        *************************************************************
        *                                                           *
        *  Thank you very much for using Q-Chem.  Have a nice day.  *
        *                                                           *
        *************************************************************


0 sent ACK to 0 
now end server 0 ... 
