/home/eric/opt/apps/qchem/trunk_gcc_release_r20063_20160119_qints_r729/exe/qcprog.exe .freq_ccsd.in.29581.qcin.1 /tmp/qchem/qchem29581/

Process 0 of 1 is on copper - thread support 0
initial socket setup ...start
initial socket setup ...done 
now start server 0 ... 
                  Welcome to Q-Chem
     A Quantum Leap Into The Future Of Chemistry


 Q-Chem 4.3, Q-Chem, Inc., Pleasanton, CA (2015)

 Y. Shao,  Z. Gan,  E. Epifanovsky,  A. T. B. Gilbert,  M. Wormit,  
 J. Kussmann,  A. W. Lange,  A. Behn,  J. Deng,  X. Feng,  D. Ghosh,  
 M. Goldey,  P. R. Horn,  L. D. Jacobson,  I. Kaliman,  R. Z. Khaliullin,  
 T. Kus,  A. Landau,  J. Liu,  E. I. Proynov,  Y. M. Rhee,  R. M. Richard,  
 M. A. Rohrdanz,  R. P. Steele,  E. J. Sundstrom,  H. L. Woodcock III,  
 P. M. Zimmerman,  D. Zuev,  B. Albrecht,  E. Alguire,  B. Austin,  
 S. A. Baeppler,  G. J. O. Beran,  Y. A. Bernard,  E. Berquist,  
 K. Brandhorst,  K. B. Bravaya,  S. T. Brown,  D. Casanova,  C.-M. Chang,  
 Y. Chen,  S. H. Chien,  K. D. Closser,  D. L. Crittenden,  M. Diedenhofen,  
 R. A. DiStasio Jr.,  H. Do,  A. D. Dutoi,  R. G. Edgar,  P.-T. Fang,  
 S. Fatehi,  Q. Feng,  L. Fusti-Molnar,  A. Ghysels,  
 A. Golubeva-Zadorozhnaya,  J. Gomes,  A. Gunina,  M. W. D. Hanson-Heine,  
 P. H. P. Harbach,  A. W. Hauser,  E. G. Hohenstein,  Z. C. Holden,  K. Hui,  
 T.-C. Jagau,  H. Ji,  B. Kaduk,  K. Khistyaev,  Jaehoon Kim,  Jihan Kim,  
 R. A. King,  P. Klunzinger,  D. Kosenkov,  T. Kowalczyk,  C. M. Krauter,  
 K. U. Lao,  A. Laurent,  K. V. Lawler,  S. Lehtola,  S. V. Levchenko,  
 C. Y. Lin,  Y.-S. Lin,  F. Liu,  E. Livshits,  R. C. Lochan,  A. Luenser,  
 P. Manohar,  S. F. Manzer,  S.-P. Mao,  N. Mardirossian,  A. V. Marenich,  
 L. A. Martinez-Martinez,  S. A. Maurer,  N. J. Mayhall,  K. Nanda,  
 C. M. Oana,  R. Olivares-Amaya,  D. P. O'Neill,  J. A. Parkhill,  
 T. M. Perrine,  R. Peverati,  P. A. Pieniazek,  F. Plasser,  A. Prociuk,  
 D. R. Rehn,  E. Rosta,  N. J. Russ,  N. Sergueev,  S. M. Sharada,  
 S. Sharma,  D. W. Small,  A. Sodt,  T. Stauch,  T. Stein,  D. Stuck,  
 Y.-C. Su,  A. J. W. Thom,  T. Tsuchimochi,  L. Vogt,  O. Vydrov,  T. Wang,  
 M. A. Watson,  J. Wenzel,  A. White,  C. F. Williams,  V. Vanovschi,  
 S. Yeganeh,  S. R. Yost,  Z.-Q. You,  I. Y. Zhang,  X. Zhang,  Y. Zhao,  
 B. R. Brooks,  G. K. L. Chan,  D. M. Chipman,  C. J. Cramer,  
 W. A. Goddard III,  M. S. Gordon,  W. J. Hehre,  A. Klamt,  
 H. F. Schaefer III,  M. W. Schmidt,  C. D. Sherrill,  D. G. Truhlar,  
 A. Warshel,  X. Xu,  A. Aspuru-Guzik,  R. Baer,  A. T. Bell,  N. A. Besley,  
 J.-D. Chai,  A. Dreuw,  B. D. Dunietz,  T. R. Furlani,  S. R. Gwaltney,  
 C.-P. Hsu,  Y. Jung,  J. Kong,  D. S. Lambrecht,  W. Liang,  C. Ochsenfeld,  
 V. A. Rassolov,  L. V. Slipchenko,  J. E. Subotnik,  T. Van Voorhis,  
 J. M. Herbert,  A. I. Krylov,  P. M. W. Gill,  M. Head-Gordon

 Contributors to earlier versions of Q-Chem not listed above: 
 R. D. Adamson,  J. Baker,  E. F. C. Byrd,  A. K. Chakraborty,  C.-L. Cheng,  
 H. Dachsel,  R. J. Doerksen,  G. Hawkins,  A. Heyden,  S. Hirata,  
 G. Kedziora,  F. J. Keil,  C. Kelley,  P. P. Korambath,  W. Kurlancheek,  
 A. M. Lee,  M. S. Lee,  D. Liotard,  I. Lotan,  P. E. Maslen,  N. Nair,  
 D. Neuhauser,  R. Olson,  B. Peters,  J. Ritchie,  N. E. Schultz,  
 N. Shenvi,  A. C. Simmonett,  K. S. Thanthiriwatte,  Q. Wu,  W. Zhang

 Please cite Q-Chem as follows:
 Y. Shao et al., Mol. Phys. 113, 184-215 (2015)
 DOI: 10.1080/00268976.2014.952696

 Q-Chem 4.3.0 for Intel X86 EM64T Linux

 Parts of Q-Chem use Armadillo 5.200.1 (Boston Tea Smuggler).
 http://arma.sourceforge.net/

 Q-Chem begins on Sat Jul  9 21:02:42 2016  

copper
Host: 0

     Scratch files written to /tmp/qchem/qchem29581//
 Parallel job on  1  processors

Checking the input file for inconsistencies... 	...done.

--------------------------------------------------------------
User input:
--------------------------------------------------------------
$rem
 jobtype freq
 method ccsd
 basis 6-31g*
 symmetry false
 sym_ignore true
 cc_symmetry false
 n_frozen_core fc
 ideriv 1
$end

$molecule
0 1
H     -0.5396003454    1.1649003260    0.0872286366
C      0.1788866951    0.5682133645    0.6252945742
C      1.1760899588   -0.1925516770   -0.1100290962
O      1.5080258155    1.0073321184    0.5338839151
H     -0.1327205638    0.2470104325    1.6053914340
C      1.2492222693   -0.1916255617   -1.6120028991
H      1.5882490302   -1.0662337231    0.3716124236
H      0.8139286891    0.7160013243   -2.0151045357
H      0.7172428607   -1.0464886824   -2.0201005727
H      2.2831855905   -0.2471579216   -1.9388238797
$end
--------------------------------------------------------------
 ----------------------------------------------------------------
             Standard Nuclear Orientation (Angstroms)
    I     Atom           X                Y                Z
 ----------------------------------------------------------------
    1      H      -0.5396003454     1.1649003260     0.0872286366
    2      C       0.1788866951     0.5682133645     0.6252945742
    3      C       1.1760899588    -0.1925516770    -0.1100290962
    4      O       1.5080258155     1.0073321184     0.5338839151
    5      H      -0.1327205638     0.2470104325     1.6053914340
    6      C       1.2492222693    -0.1916255617    -1.6120028991
    7      H       1.5882490302    -1.0662337231     0.3716124236
    8      H       0.8139286891     0.7160013243    -2.0151045357
    9      H       0.7172428607    -1.0464886824    -2.0201005727
   10      H       2.2831855905    -0.2471579216    -1.9388238797
 ----------------------------------------------------------------
 Nuclear Repulsion Energy =   126.0599973496 hartrees
 There are       16 alpha and       16 beta electrons
 Requested basis set is 6-31G(d)
 There are 28 shells and 72 basis functions
 Total memory of 1562MB is distributed as follows: 
   QALLOC including MEM_STATIC uses 1062MB
   MEM_STATIC is set to 62MB
   CCMAN JOB total memory use is  1500MB
 Warning: actual memory use might exceed 1562MB

 Total QAlloc Memory Limit   1062 MB
 Mega-Array Size        61 MB
 MEM_STATIC part        62 MB

                       Distance Matrix (Angstroms)
             H (  1)   C (  2)   C (  3)   O (  4)   H (  5)   C (  6)
   C (  2)  1.077856
   C (  3)  2.196629  1.453918
   O (  4)  2.101690  1.402780  1.401616
   H (  5)  1.820135  1.077432  2.202014  2.101967
   C (  6)  2.815570  2.593930  1.503753  2.471702  3.528993
   H (  7)  3.096220  2.173033  1.079432  2.081452  2.491698  2.194222
   H (  8)  2.540346  2.719711  2.141481  2.657816  3.771484  1.084324
   H (  9)  3.303140  3.145665  2.141990  3.371402  3.942052  1.086433
   H ( 10)  3.750589  3.415788  2.138488  2.879045  4.317669  1.085807
             H (  7)   H (  8)   H (  9)
   H (  8)  3.077719
   H (  9)  2.545453  1.765147
   H ( 10)  2.547928  1.758468  1.760032

 tim1(1): 
   3.3329999999999957E-003
 tim1(2): 
   0.0000000000000000     
 A cutoff of  1.0D-14 yielded    404 shell pairs
 There are      2734 function pairs

 -------------------------------------------------------
 OpenMP Integral Computing Module                       
 Release: version 1.0, May 2013, Q-Chem Inc. Pittsburgh 
 -------------------------------------------------------
 Integral Job Info:
 Integral job number is                      11
 Integral operator is                         1
 short-range coefficients                     0
 long-range coefficients              100000000
 Omega coefficients                           0
 if combine SR and LR in K                    0
 Integral screening is                        0
 Integral computing path is                   2
 max size of driver memory is            800000
 size of driver memory is                593474
 size of scratch memory is              2260544
 max col of scratch BK array               1296
 max len of scratch array in speh3          155
 max len of scratch index in speh4           18
 max int batch size is                      520
 min int batch size is                       52
 fixed nKL is                                52
 max L of basis functions is                  2
 order of int derivative is                   0
 number of shells is                         28
 number of basis is                          72
 number of cartesian basis is                72
 number of contracted shell pairs           404
 number of primitive shell pairs           1819
 maxK2 (contraction) of shell pair           36
 max number of K2 of shell pair               1
 max number of CS2 of shell pair             48
 max number of PS2 of shell pair            192
 mem total for path MDJ                   16216
 -------------------------------------------------------
 Smallest overlap matrix eigenvalue = 3.68E-03
 Guess from superposition of atomic densities
 Warning:  Energy on first SCF cycle will be non-variational
 A restricted Hartree-Fock SCF calculation will be
 performed using Pulay DIIS extrapolation
 SCF converges when DIIS error is below 1.0E-08
 ---------------------------------------
  Cycle       Energy         DIIS Error
 ---------------------------------------
    1    -193.3079955015      1.04E-01
    2    -191.8496373717      9.23E-03
    3    -191.8975380078      4.82E-03
    4    -191.9086686718      1.25E-03
    5    -191.9096868454      2.03E-04
    6    -191.9097224423      5.96E-05
    7    -191.9097262205      1.48E-05
    8    -191.9097265934      3.45E-06
    9    -191.9097266130      5.90E-07
   10    -191.9097266135      1.70E-07
   11    -191.9097266136      5.04E-08
   12    -191.9097266136      1.60E-08
   13    -191.9097266136      4.13E-09 Convergence criterion met
 ---------------------------------------
 SCF time:  CPU 1.36 s  wall 1.27 s
 SCF   energy in the final basis set = -191.9097266136
 Total energy in the final basis set = -191.9097266136


 ------------------------------------------------------------------------------

   CCMAN2: suite of methods based on coupled cluster
           and equation of motion theories.

   Components:
   * libvmm-1.2-release
     by Evgeny Epifanovsky, Ilya Kaliman.
   * libtensor-2.4-trunk
     by Evgeny Epifanovsky, Michael Wormit, Dmitry Zuev, Sam Manzer.
   * libcc-2.4-trunk
     by Evgeny Epifanovsky, Arik Landau, Tomasz Kus, Kirill Khistyaev, 
        Dmitry Zuev, Prashant Manohar, Xintian Feng, Anna Krylov, 
        Matthew Goldey, Alec White, Thomas Jagau, Kaushik Nanda, 
        Anastasia Gunina.

   CCMAN original authors:
   Anna I. Krylov, C. David Sherrill, Steven R. Gwaltney,
   Edward F. C. Byrd (2000)
   Sergey V. Levchenko, Lyudmila V. Slipchenko, Tao Wang,
   Ana-Maria C. Cristian (2003)
   Piotr A. Pieniazek, C. Melania Oana, Evgeny Epifanovsky (2007)
   Prashant Manohar (2009)

 ------------------------------------------------------------------------------


 Calculation will run on 1 core with 1500MB of RAM.


 Occupation and symmetry of molecular orbitals

 Point group: C1 (1 irreducible representation).

                           A     All 
 -------------------------------------
 All molecular orbitals:
  - Alpha                  72    72  
  - Beta                   72    72  
 -------------------------------------
 Alpha orbitals:
  - Frozen occupied        4     4   
  - Active occupied        12    12  
  - Active virtual         56    56  
  - Frozen virtual         0     0   
 -------------------------------------
 Beta orbitals:
  - Frozen occupied        4     4   
  - Active occupied        12    12  
  - Active virtual         56    56  
  - Frozen virtual         0     0   
 -------------------------------------

 Import integrals:   CPU 0.00 s  wall 0.00 s


 Import integrals:   CPU 1.58 s  wall 1.58 s

 MP2 amplitudes:   CPU 0.00 s  wall 0.00 s

           CCSD T amplitudes will be solved using DIIS.

           Start     Size      MaxIter   EConv     TConv     
           3         7         100       0x1.ad7f29abcaf48p-24 0x1.4f8b588e368f1p-17 
 ------------------------------------------------------------------------------
           Energy (a.u.)   Ediff      Tdiff       Comment
 ------------------------------------------------------------------------------
          -192.47544874                           
     1    -192.49111633   1.57e-02   7.04e-01     
     2    -192.50647251   1.54e-02   9.01e-02     
     3    -192.50832461   1.85e-03   2.94e-02     
     4    -192.50993800   1.61e-03   1.03e-02     Switched to DIIS steps.
     5    -192.51036123   4.23e-04   6.20e-03     
     6    -192.51037244   1.12e-05   8.95e-04     
     7    -192.51037251   6.77e-08   3.14e-04     
     8    -192.51037245   5.27e-08   7.79e-05     
     9    -192.51037264   1.83e-07   2.82e-05     
    10    -192.51037270   6.11e-08   8.80e-06     
 ------------------------------------------------------------------------------
          -192.51037270                           CCSD T converged.

 SCF energy                 = -191.90972661
 MP2 energy                 = -192.47544874
 CCSD correlation energy     =   -0.60064608
 CCSD total energy           = -192.51037270

 CCSD  T1^2 = 0.0048  T2^2 = 0.2084  Leading amplitudes:

 Amplitude    Orbitals with energies
 -0.0118       15 (A) A                  ->    23 (A) A                   
              -0.4399                          0.3393                     
 -0.0118       15 (A) B                  ->    23 (A) B                   
              -0.4399                          0.3393                     
  0.0080       16 (A) A                  ->    31 (A) A                   
              -0.4305                          0.8365                     
  0.0080       16 (A) B                  ->    31 (A) B                   
              -0.4305                          0.8365                     

 Amplitude    Orbitals with energies
 -0.0252       16 (A) A      16 (A) B    ->    20 (A) A      20 (A) B     
              -0.4305       -0.4305            0.2927        0.2927       
  0.0252       16 (A) A      16 (A) B    ->    20 (A) B      20 (A) A     
              -0.4305       -0.4305            0.2927        0.2927       
  0.0252       16 (A) B      16 (A) A    ->    20 (A) A      20 (A) B     
              -0.4305       -0.4305            0.2927        0.2927       
 -0.0252       16 (A) B      16 (A) A    ->    20 (A) B      20 (A) A     
              -0.4305       -0.4305            0.2927        0.2927       

           CCSD Lambda amplitudes will be solved using DIIS.
           Start     Size      MaxIter   EConv     LConv     
           3         7         100       1.00e-07  1.00e-05  
 ------------------------------------------------------------------------------
            Enorm      Ldiff       Comment
 ------------------------------------------------------------------------------
     1     3.64e-02   2.09e-02     
     2     1.00e-02   4.23e-03     
     3     3.19e-03   4.76e-04     
     4     1.47e-03   4.74e-04     Switched to DIIS steps.
     5     3.32e-04   2.04e-04     
     6     1.30e-04   3.47e-05     
     7     3.45e-05   5.38e-06     
     8     1.29e-05   4.75e-07     
     9     4.18e-06   5.71e-07     
    10     1.44e-06   1.06e-07     
    11     5.05e-07   9.66e-09     
    12     1.71e-07   1.89e-09     
    13     7.18e-08   1.04e-09     
 ------------------------------------------------------------------------------
                                   CCSD Lambda converged.

           Orbital response amplitudes will be solved using DIIS.
           Start     Size      MaxIter   EConv     LConv     
           3         7         100       1.00e-06  1.00e-06  
 ------------------------------------------------------------------------------
            Enorm      Ldiff       Comment
 ------------------------------------------------------------------------------
     1     6.47e-02   1.25e-02     
     2     6.38e-02   1.61e-02     
     3     7.11e-02   2.31e-02     
     4     4.07e-03   3.50e-02     Switched to DIIS steps.
     5     2.82e-04   2.30e-04     
     6     1.14e-04   1.78e-05     
     7     4.23e-05   6.83e-06     
     8     8.65e-06   5.94e-07     
     9     2.05e-06   7.19e-07     
    10     6.35e-07   1.31e-07     
 ------------------------------------------------------------------------------
                                   Orbital response converged.

 CCSD calculation:   CPU 19.16 s  wall 19.12 s

 Total ccman2 time:   CPU 21.42 s  wall 21.38 s


 --------------------------------------------------------------

                    Orbital Energies (a.u.)
 --------------------------------------------------------------

 Alpha MOs
 -- Occupied --
-20.568 -11.284 -11.276 -11.222  -1.427  -1.012  -0.908  -0.819
 -0.703  -0.649  -0.589  -0.564  -0.526  -0.519  -0.440  -0.431
 -- Virtual --
  0.248   0.280   0.281   0.293   0.314   0.334   0.339   0.344
  0.428   0.508   0.672   0.731   0.774   0.791   0.836   0.877
  0.899   0.955   1.010   1.083   1.132   1.145   1.166   1.192
  1.209   1.222   1.252   1.292   1.326   1.515   1.655   1.716
  1.745   1.886   1.953   2.060   2.123   2.213   2.299   2.384
  2.469   2.491   2.510   2.636   2.652   2.686   2.753   2.884
  2.951   3.081   3.224   3.319   4.227   4.596   4.693   4.887
 --------------------------------------------------------------

          Ground-State Mulliken Net Atomic Charges

     Atom                 Charge (a.u.)
  ----------------------------------------
      1 H                     0.162074
      2 C                    -0.119214
      3 C                     0.083826
      4 O                    -0.468479
      5 H                     0.164169
      6 C                    -0.489555
      7 H                     0.164304
      8 H                     0.170181
      9 H                     0.160042
     10 H                     0.172652
  ----------------------------------------
  Sum of atomic charges =     0.000000

 -----------------------------------------------------------------
                    Cartesian Multipole Moments
 -----------------------------------------------------------------
    Charge (ESU x 10^10)
                 0.0000
    Dipole Moment (Debye)
         X      -1.2926      Y      -1.3829      Z      -0.6547
       Tot       2.0030
    Quadrupole Moments (Debye-Ang)
        XX     -27.2312     XY      -3.6913     YY     -26.3780
        XZ      -2.0376     YZ      -0.9739     ZZ     -24.2921
    Octopole Moments (Debye-Ang^2)
       XXX     -77.6656    XXY     -11.9976    XYY     -28.3927
       YYY     -20.8670    XXZ       1.9318    XYZ      -1.8805
       YYZ       4.4684    XZZ     -25.4088    YZZ      -6.6051
       ZZZ      18.3609
    Hexadecapole Moments (Debye-Ang^3)
      XXXX    -230.5781   XXXY     -21.8253   XXYY     -58.2248
      XYYY     -16.8678   YYYY     -89.1538   XXXZ      26.3010
      XXYZ     -10.6233   XYYZ      10.9366   YYYZ     -23.2047
      XXZZ     -70.6530   XYZZ      -5.0507   YYZZ     -46.0851
      XZZZ      33.4636   YZZZ     -23.0130   ZZZZ    -192.6355
 -----------------------------------------------------------------
 DrvMan completing analytic gradient of the correlated energy

 Entering direct/semidirect transformation code...
          The following integrals will be calculated:
                        (11|11)
 where index 1 (alpha) is the lowest     68 levels 
       index 1 (beta)  is the lowest     68 levels 

 Correlated dipole moment
            1
    1  -0.5085624
    2  -0.5440874
    3  -0.2575745
 Nuclear Gradient
             1             2             3             4             5
    1    2.57399156    8.57185980   -1.58038939   -8.64120219    1.26454005
    2   -1.88246118   -1.06084438    6.51982892   -9.39486728    0.92854518
    3    1.37991547   -4.14522327    2.21916381   -5.22627459   -3.07939033
             6             7             8             9            10
    1   -0.54687213   -1.33152900    1.13947153    1.27051380   -2.72038404
    2    1.77292944    2.98756636   -2.32503412    2.18944169    0.26489535
    3    6.07942019   -1.52842933    1.66842310    1.38022529    1.25216967
 One-electron Gradient
             1             2             3             4             5
    1   -2.56672691   -8.55586129    1.58108550    8.61600889   -1.26058235
    2    1.87800270    1.06318820   -6.50648575    9.37042378   -0.92516427
    3   -1.37501390    4.14239553   -2.20341082    5.21845660    3.07089975
             6             7             8             9            10
    1    0.54742372    1.32838664   -1.13609398   -1.26691372    2.71327349
    2   -1.77139700   -2.97863986    2.31825567   -2.18359196   -0.26459152
    3   -6.08417711    1.52437412   -1.66633748   -1.37715724   -1.25002945
 Energy read as -192.510372697
 Full Analytical Gradient: (in a.u., or Hartree/Bohr)
             1             2             3             4             5
    1    0.00726465    0.01599850    0.00069612   -0.02519330    0.00395771
    2   -0.00445848    0.00234383    0.01334317   -0.02444349    0.00338091
    3    0.00490157   -0.00282775    0.01575299   -0.00781799   -0.00849058
             6             7             8             9            10
    1    0.00055159   -0.00314236    0.00337755    0.00360009   -0.00711055
    2    0.00153244    0.00892650   -0.00677844    0.00584973    0.00030383
    3   -0.00475692   -0.00405521    0.00208562    0.00306804    0.00214022
 Gradient time:  CPU 23.00 s  wall 23.00 s
 ######################################################
 ######################################################
 # Starting finite difference calculation for IDERIV  #
 Finite diff step size: 1.89e-03 a.u.
 ----------------------------------------------------------------
             Standard Nuclear Orientation (Angstroms)
    I     Atom           X                Y                Z
 ----------------------------------------------------------------
    1      H      -0.5386003454     1.1649003260     0.0872286366
    2      C       0.1788866951     0.5682133645     0.6252945742
    3      C       1.1760899588    -0.1925516770    -0.1100290962
    4      O       1.5080258155     1.0073321184     0.5338839151
    5      H      -0.1327205638     0.2470104325     1.6053914340
    6      C       1.2492222693    -0.1916255617    -1.6120028991
    7      H       1.5882490302    -1.0662337231     0.3716124236
    8      H       0.8139286891     0.7160013243    -2.0151045357
    9      H       0.7172428607    -1.0464886824    -2.0201005727
   10      H       2.2831855905    -0.2471579216    -1.9388238797
 ----------------------------------------------------------------
 Nuclear Repulsion Energy =   126.0636863183 hartrees
 There are       16 alpha and       16 beta electrons

                       Distance Matrix (Angstroms)
             H (  1)   C (  2)   C (  3)   O (  4)   H (  5)   C (  6)
   C (  2)  1.077190
   C (  3)  2.195848  1.453918
   O (  4)  2.100716  1.402780  1.401616
   H (  5)  1.819912  1.077432  2.202014  2.101967
   C (  6)  2.814935  2.593930  1.503753  2.471702  3.528993
   H (  7)  3.095533  2.173033  1.079432  2.081452  2.491698  2.194222
   H (  8)  2.539813  2.719711  2.141481  2.657816  3.771484  1.084324
   H (  9)  3.302759  3.145665  2.141990  3.371402  3.942052  1.086433
   H ( 10)  3.749836  3.415788  2.138488  2.879045  4.317669  1.085807
             H (  7)   H (  8)   H (  9)
   H (  8)  3.077719
   H (  9)  2.545453  1.765147
   H ( 10)  2.547928  1.758468  1.760032

 Requested basis set is 6-31G(d)
 There are 28 shells and 72 basis functions
 tim1(1): 
   0.0000000000000000     
 tim1(2): 
   0.0000000000000000     
 A cutoff of  1.0D-14 yielded    404 shell pairs
 There are      2734 function pairs
 Smallest overlap matrix eigenvalue = 3.68E-03
 Guess MOs from SCF MO coefficient file
 Reading MOs from coefficient file
 Reading MOs from coefficient file
 A restricted Hartree-Fock SCF calculation will be
 performed using Pulay DIIS extrapolation
 SCF converges when DIIS error is below 1.0E-08
 ---------------------------------------
  Cycle       Energy         DIIS Error
 ---------------------------------------
    1    -191.9099845658      2.53E-05
    2    -191.9097264964      4.21E-06
    3    -191.9097265099      2.10E-06
    4    -191.9097265124      5.42E-07
    5    -191.9097265127      1.86E-07
    6    -191.9097265127      6.86E-08
    7    -191.9097265127      2.13E-08
    8    -191.9097265127      6.07E-09 Convergence criterion met
 ---------------------------------------
 SCF time:  CPU 0.86 s  wall 0.81 s
 SCF   energy in the final basis set = -191.9097265127
 Total energy in the final basis set = -191.9097265127


 ------------------------------------------------------------------------------

   CCMAN2: suite of methods based on coupled cluster
           and equation of motion theories.

   Components:
   * libvmm-1.2-release
     by Evgeny Epifanovsky, Ilya Kaliman.
   * libtensor-2.4-trunk
     by Evgeny Epifanovsky, Michael Wormit, Dmitry Zuev, Sam Manzer.
   * libcc-2.4-trunk
     by Evgeny Epifanovsky, Arik Landau, Tomasz Kus, Kirill Khistyaev, 
        Dmitry Zuev, Prashant Manohar, Xintian Feng, Anna Krylov, 
        Matthew Goldey, Alec White, Thomas Jagau, Kaushik Nanda, 
        Anastasia Gunina.

   CCMAN original authors:
   Anna I. Krylov, C. David Sherrill, Steven R. Gwaltney,
   Edward F. C. Byrd (2000)
   Sergey V. Levchenko, Lyudmila V. Slipchenko, Tao Wang,
   Ana-Maria C. Cristian (2003)
   Piotr A. Pieniazek, C. Melania Oana, Evgeny Epifanovsky (2007)
   Prashant Manohar (2009)

 ------------------------------------------------------------------------------


 Calculation will run on 1 core with 1500MB of RAM.


 Occupation and symmetry of molecular orbitals

 Point group: C1 (1 irreducible representation).

                           A     All 
 -------------------------------------
 All molecular orbitals:
  - Alpha                  72    72  
  - Beta                   72    72  
 -------------------------------------
 Alpha orbitals:
  - Frozen occupied        4     4   
  - Active occupied        12    12  
  - Active virtual         56    56  
  - Frozen virtual         0     0   
 -------------------------------------
 Beta orbitals:
  - Frozen occupied        4     4   
  - Active occupied        12    12  
  - Active virtual         56    56  
  - Frozen virtual         0     0   
 -------------------------------------

 Import integrals:   CPU 0.00 s  wall 0.00 s


 Import integrals:   CPU 1.56 s  wall 1.56 s

 MP2 amplitudes:   CPU 0.00 s  wall 0.00 s

           CCSD T amplitudes will be solved using DIIS.

           Start     Size      MaxIter   EConv     TConv     
           3         7         100       0x1.ad7f29abcaf48p-24 0x1.4f8b588e368f1p-17 
 ------------------------------------------------------------------------------
           Energy (a.u.)   Ediff      Tdiff       Comment
 ------------------------------------------------------------------------------
          -192.47543691                           
     1    -192.49110496   1.57e-02   7.04e-01     
     2    -192.50645916   1.54e-02   9.01e-02     
     3    -192.50831103   1.85e-03   2.94e-02     
     4    -192.50992407   1.61e-03   1.03e-02     Switched to DIIS steps.
     5    -192.51034715   4.23e-04   6.19e-03     
     6    -192.51035836   1.12e-05   8.95e-04     
     7    -192.51035842   6.61e-08   3.14e-04     
     8    -192.51035837   5.30e-08   7.79e-05     
     9    -192.51035855   1.83e-07   2.82e-05     
    10    -192.51035862   6.11e-08   8.80e-06     
 ------------------------------------------------------------------------------
          -192.51035862                           CCSD T converged.

 SCF energy                 = -191.90972651
 MP2 energy                 = -192.47543691
 CCSD correlation energy     =   -0.60063210
 CCSD total energy           = -192.51035862

 CCSD  T1^2 = 0.0048  T2^2 = 0.2084  Leading amplitudes:

 Amplitude    Orbitals with energies
 -0.0117       15 (A) A                  ->    23 (A) A                   
              -0.4399                          0.3393                     
 -0.0117       15 (A) B                  ->    23 (A) B                   
              -0.4399                          0.3393                     
  0.0080       16 (A) A                  ->    31 (A) A                   
              -0.4305                          0.8365                     
  0.0080       16 (A) B                  ->    31 (A) B                   
              -0.4305                          0.8365                     

 Amplitude    Orbitals with energies
 -0.0252       16 (A) A      16 (A) B    ->    20 (A) A      20 (A) B     
              -0.4305       -0.4305            0.2927        0.2927       
  0.0252       16 (A) A      16 (A) B    ->    20 (A) B      20 (A) A     
              -0.4305       -0.4305            0.2927        0.2927       
  0.0252       16 (A) B      16 (A) A    ->    20 (A) A      20 (A) B     
              -0.4305       -0.4305            0.2927        0.2927       
 -0.0252       16 (A) B      16 (A) A    ->    20 (A) B      20 (A) A     
              -0.4305       -0.4305            0.2927        0.2927       

           CCSD Lambda amplitudes will be solved using DIIS.
           Start     Size      MaxIter   EConv     LConv     
           3         7         100       1.00e-07  1.00e-05  
 ------------------------------------------------------------------------------
            Enorm      Ldiff       Comment
 ------------------------------------------------------------------------------
     1     3.64e-02   2.09e-02     
     2     1.00e-02   4.23e-03     
     3     3.19e-03   4.76e-04     
     4     1.47e-03   4.74e-04     Switched to DIIS steps.
     5     3.32e-04   2.04e-04     
     6     1.30e-04   3.47e-05     
     7     3.45e-05   5.38e-06     
     8     1.29e-05   4.74e-07     
     9     4.18e-06   5.70e-07     
    10     1.44e-06   1.06e-07     
    11     5.05e-07   9.64e-09     
    12     1.71e-07   1.89e-09     
    13     7.19e-08   1.05e-09     
 ------------------------------------------------------------------------------
                                   CCSD Lambda converged.

           Orbital response amplitudes will be solved using DIIS.
           Start     Size      MaxIter   EConv     LConv     
           3         7         100       1.00e-06  1.00e-06  
 ------------------------------------------------------------------------------
            Enorm      Ldiff       Comment
 ------------------------------------------------------------------------------
     1     6.47e-02   1.25e-02     
     2     6.38e-02   1.61e-02     
     3     7.10e-02   2.31e-02     
     4     4.07e-03   3.50e-02     Switched to DIIS steps.
     5     2.82e-04   2.30e-04     
     6     1.14e-04   1.78e-05     
     7     4.23e-05   6.83e-06     
     8     8.65e-06   5.92e-07     
     9     2.05e-06   7.19e-07     
    10     6.35e-07   1.31e-07     
 ------------------------------------------------------------------------------
                                   Orbital response converged.

 CCSD calculation:   CPU 19.18 s  wall 19.14 s

 Total ccman2 time:   CPU 21.05 s  wall 21.00 s


 --------------------------------------------------------------

                    Orbital Energies (a.u.)
 --------------------------------------------------------------

 Alpha MOs
 -- Occupied --
-20.568 -11.284 -11.276 -11.222  -1.427  -1.012  -0.908  -0.819
 -0.703  -0.649  -0.589  -0.565  -0.526  -0.519  -0.440  -0.431
 -- Virtual --
  0.248   0.280   0.281   0.293   0.314   0.334   0.339   0.344
  0.428   0.508   0.672   0.731   0.774   0.791   0.836   0.877
  0.899   0.955   1.010   1.083   1.132   1.145   1.166   1.192
  1.209   1.222   1.252   1.292   1.326   1.515   1.655   1.716
  1.745   1.886   1.953   2.060   2.123   2.213   2.299   2.384
  2.469   2.491   2.510   2.636   2.652   2.686   2.753   2.884
  2.951   3.081   3.224   3.319   4.227   4.596   4.693   4.887
 --------------------------------------------------------------

          Ground-State Mulliken Net Atomic Charges

     Atom                 Charge (a.u.)
  ----------------------------------------
      1 H                     0.162177
      2 C                    -0.119193
      3 C                     0.083759
      4 O                    -0.468539
      5 H                     0.164189
      6 C                    -0.489554
      7 H                     0.164299
      8 H                     0.170167
      9 H                     0.160041
     10 H                     0.172655
  ----------------------------------------
  Sum of atomic charges =    -0.000000

 -----------------------------------------------------------------
                    Cartesian Multipole Moments
 -----------------------------------------------------------------
    Charge (ESU x 10^10)
                 0.0000
    Dipole Moment (Debye)
         X      -1.2929      Y      -1.3827      Z      -0.6547
       Tot       2.0030
    Quadrupole Moments (Debye-Ang)
        XX     -27.2322     XY      -3.6914     YY     -26.3767
        XZ      -2.0378     YZ      -0.9742     ZZ     -24.2914
    Octopole Moments (Debye-Ang^2)
       XXX     -77.6702    XXY     -11.9985    XYY     -28.3938
       YYY     -20.8634    XXZ       1.9311    XYZ      -1.8807
       YYZ       4.4684    XZZ     -25.4101    YZZ      -6.6045
       ZZZ      18.3625
    Hexadecapole Moments (Debye-Ang^3)
      XXXX    -230.5768   XXXY     -21.8297   XXYY     -58.2247
      XYYY     -16.8716   YYYY     -89.1457   XXXZ      26.2991
      XXYZ     -10.6236   XYYZ      10.9362   YYYZ     -23.2046
      XXZZ     -70.6523   XYZZ      -5.0523   YYZZ     -46.0842
      XZZZ      33.4635   YZZZ     -23.0127   ZZZZ    -192.6341
 -----------------------------------------------------------------
 DrvMan completing analytic gradient of the correlated energy

 Entering direct/semidirect transformation code...
          The following integrals will be calculated:
                        (11|11)
 where index 1 (alpha) is the lowest     68 levels 
       index 1 (beta)  is the lowest     68 levels 

 Correlated dipole moment
            1
    1  -0.5086847
    2  -0.5439812
    3  -0.2575978
 Nuclear Gradient
             1             2             3             4             5
    1    2.57193510    8.57388307   -1.58074387   -8.64036313    1.26409765
    2   -1.88492847   -1.05874423    6.52029125   -9.39523235    0.92878121
    3    1.38240473   -4.14801406    2.21960259   -5.22611374   -3.07971859
             6             7             8             9            10
    1   -0.54677179   -1.33160623    1.13946669    1.27051780   -2.72041530
    2    1.77287404    2.98761076   -2.32500403    2.18943763    0.26491418
    3    6.07941942   -1.52841804    1.66846883    1.38020462    1.25216423
 One-electron Gradient
             1             2             3             4             5
    1   -2.56429452   -8.55820477    1.58142318    8.61511098   -1.26012216
    2    1.88023694    1.06130207   -6.50695194    9.37082011   -0.92540881
    3   -1.37730457    4.14500207   -2.20385857    5.21828062    3.07123721
             6             7             8             9            10
    1    0.54732462    1.32846487   -1.13608948   -1.26691770    2.71330498
    2   -1.77133972   -2.97868489    2.31822518   -2.18358804   -0.26461090
    3   -6.08417744    1.52436253   -1.66638212   -1.37713576   -1.25002398
 Energy read as -192.510358616
 Full Analytical Gradient: (in a.u., or Hartree/Bohr)
             1             2             3             4             5
    1    0.00764059    0.01567830    0.00067931   -0.02525215    0.00397549
    2   -0.00469153    0.00255785    0.01333931   -0.02441224    0.00337240
    3    0.00510015   -0.00301199    0.01574402   -0.00783311   -0.00848138
             6             7             8             9            10
    1    0.00055283   -0.00314136    0.00337721    0.00360010   -0.00711031
    2    0.00153432    0.00892587   -0.00677884    0.00584959    0.00030328
    3   -0.00475802   -0.00405551    0.00208671    0.00306886    0.00214026
 Gradient time:  CPU 23.18 s  wall 23.18 s
 ----------------------------------------------------------------
             Standard Nuclear Orientation (Angstroms)
    I     Atom           X                Y                Z
 ----------------------------------------------------------------
    1      H      -0.5406003454     1.1649003260     0.0872286366
    2      C       0.1788866951     0.5682133645     0.6252945742
    3      C       1.1760899588    -0.1925516770    -0.1100290962
    4      O       1.5080258155     1.0073321184     0.5338839151
    5      H      -0.1327205638     0.2470104325     1.6053914340
    6      C       1.2492222693    -0.1916255617    -1.6120028991
    7      H       1.5882490302    -1.0662337231     0.3716124236
    8      H       0.8139286891     0.7160013243    -2.0151045357
    9      H       0.7172428607    -1.0464886824    -2.0201005727
   10      H       2.2831855905    -0.2471579216    -1.9388238797
 ----------------------------------------------------------------
 Nuclear Repulsion Energy =   126.0563102733 hartrees
 There are       16 alpha and       16 beta electrons

                       Distance Matrix (Angstroms)
             H (  1)   C (  2)   C (  3)   O (  4)   H (  5)   C (  6)
   C (  2)  1.078523
   C (  3)  2.197410  1.453918
   O (  4)  2.102664  1.402780  1.401616
   H (  5)  1.820359  1.077432  2.202014  2.101967
   C (  6)  2.816206  2.593930  1.503753  2.471702  3.528993
   H (  7)  3.096907  2.173033  1.079432  2.081452  2.491698  2.194222
   H (  8)  2.540879  2.719711  2.141481  2.657816  3.771484  1.084324
   H (  9)  3.303520  3.145665  2.141990  3.371402  3.942052  1.086433
   H ( 10)  3.751342  3.415788  2.138488  2.879045  4.317669  1.085807
             H (  7)   H (  8)   H (  9)
   H (  8)  3.077719
   H (  9)  2.545453  1.765147
   H ( 10)  2.547928  1.758468  1.760032

 Requested basis set is 6-31G(d)
 There are 28 shells and 72 basis functions
 tim1(1): 
   0.0000000000000000     
 tim1(2): 
   0.0000000000000000     
 A cutoff of  1.0D-14 yielded    404 shell pairs
 There are      2734 function pairs
 Smallest overlap matrix eigenvalue = 3.68E-03
 Guess MOs from SCF MO coefficient file
 Reading MOs from coefficient file
 Reading MOs from coefficient file
 A restricted Hartree-Fock SCF calculation will be
 performed using Pulay DIIS extrapolation
 SCF converges when DIIS error is below 1.0E-08
 ---------------------------------------
  Cycle       Energy         DIIS Error
 ---------------------------------------
    1    -191.9092096139      5.07E-05
    2    -191.9097259076      8.43E-06
    3    -191.9097259618      4.21E-06
    4    -191.9097259716      1.08E-06
    5    -191.9097259728      3.72E-07
    6    -191.9097259730      1.37E-07
    7    -191.9097259730      4.27E-08
    8    -191.9097259730      1.21E-08
    9    -191.9097259730      3.15E-09 Convergence criterion met
 ---------------------------------------
 SCF time:  CPU 0.96 s  wall 0.90 s
 SCF   energy in the final basis set = -191.9097259730
 Total energy in the final basis set = -191.9097259730


 ------------------------------------------------------------------------------

   CCMAN2: suite of methods based on coupled cluster
           and equation of motion theories.

   Components:
   * libvmm-1.2-release
     by Evgeny Epifanovsky, Ilya Kaliman.
   * libtensor-2.4-trunk
     by Evgeny Epifanovsky, Michael Wormit, Dmitry Zuev, Sam Manzer.
   * libcc-2.4-trunk
     by Evgeny Epifanovsky, Arik Landau, Tomasz Kus, Kirill Khistyaev, 
        Dmitry Zuev, Prashant Manohar, Xintian Feng, Anna Krylov, 
        Matthew Goldey, Alec White, Thomas Jagau, Kaushik Nanda, 
        Anastasia Gunina.

   CCMAN original authors:
   Anna I. Krylov, C. David Sherrill, Steven R. Gwaltney,
   Edward F. C. Byrd (2000)
   Sergey V. Levchenko, Lyudmila V. Slipchenko, Tao Wang,
   Ana-Maria C. Cristian (2003)
   Piotr A. Pieniazek, C. Melania Oana, Evgeny Epifanovsky (2007)
   Prashant Manohar (2009)

 ------------------------------------------------------------------------------


 Calculation will run on 1 core with 1500MB of RAM.


 Occupation and symmetry of molecular orbitals

 Point group: C1 (1 irreducible representation).

                           A     All 
 -------------------------------------
 All molecular orbitals:
  - Alpha                  72    72  
  - Beta                   72    72  
 -------------------------------------
 Alpha orbitals:
  - Frozen occupied        4     4   
  - Active occupied        12    12  
  - Active virtual         56    56  
  - Frozen virtual         0     0   
 -------------------------------------
 Beta orbitals:
  - Frozen occupied        4     4   
  - Active occupied        12    12  
  - Active virtual         56    56  
  - Frozen virtual         0     0   
 -------------------------------------

 Import integrals:   CPU 0.00 s  wall 0.00 s


 Import integrals:   CPU 1.55 s  wall 1.55 s

 MP2 amplitudes:   CPU 0.00 s  wall 0.00 s

           CCSD T amplitudes will be solved using DIIS.

           Start     Size      MaxIter   EConv     TConv     
           3         7         100       0x1.ad7f29abcaf48p-24 0x1.4f8b588e368f1p-17 
 ------------------------------------------------------------------------------
           Energy (a.u.)   Ediff      Tdiff       Comment
 ------------------------------------------------------------------------------
          -192.47545987                           
     1    -192.49112698   1.57e-02   7.04e-01     
     2    -192.50648516   1.54e-02   9.01e-02     
     3    -192.50833748   1.85e-03   2.94e-02     
     4    -192.50995123   1.61e-03   1.03e-02     Switched to DIIS steps.
     5    -192.51037460   4.23e-04   6.20e-03     
     6    -192.51038581   1.12e-05   8.95e-04     
     7    -192.51038588   6.93e-08   3.15e-04     
     8    -192.51038583   5.24e-08   7.80e-05     
     9    -192.51038601   1.83e-07   2.82e-05     
    10    -192.51038607   6.11e-08   8.80e-06     
 ------------------------------------------------------------------------------
          -192.51038607                           CCSD T converged.

 SCF energy                 = -191.90972597
 MP2 energy                 = -192.47545987
 CCSD correlation energy     =   -0.60066010
 CCSD total energy           = -192.51038607

 CCSD  T1^2 = 0.0048  T2^2 = 0.2085  Leading amplitudes:

 Amplitude    Orbitals with energies
 -0.0118       15 (A) A                  ->    23 (A) A                   
              -0.4399                          0.3393                     
 -0.0118       15 (A) B                  ->    23 (A) B                   
              -0.4399                          0.3393                     
  0.0080       16 (A) A                  ->    31 (A) A                   
              -0.4305                          0.8365                     
  0.0080       16 (A) B                  ->    31 (A) B                   
              -0.4305                          0.8365                     

 Amplitude    Orbitals with energies
 -0.0253       16 (A) A      16 (A) B    ->    20 (A) A      20 (A) B     
              -0.4305       -0.4305            0.2927        0.2927       
  0.0253       16 (A) A      16 (A) B    ->    20 (A) B      20 (A) A     
              -0.4305       -0.4305            0.2927        0.2927       
  0.0253       16 (A) B      16 (A) A    ->    20 (A) A      20 (A) B     
              -0.4305       -0.4305            0.2927        0.2927       
 -0.0253       16 (A) B      16 (A) A    ->    20 (A) B      20 (A) A     
              -0.4305       -0.4305            0.2927        0.2927       

           CCSD Lambda amplitudes will be solved using DIIS.
           Start     Size      MaxIter   EConv     LConv     
           3         7         100       1.00e-07  1.00e-05  
 ------------------------------------------------------------------------------
            Enorm      Ldiff       Comment
 ------------------------------------------------------------------------------
     1     3.64e-02   2.09e-02     
     2     1.00e-02   4.23e-03     
     3     3.19e-03   4.76e-04     
     4     1.47e-03   4.74e-04     Switched to DIIS steps.
     5     3.32e-04   2.04e-04     
     6     1.30e-04   3.47e-05     
     7     3.45e-05   5.38e-06     
     8     1.29e-05   4.76e-07     
     9     4.18e-06   5.71e-07     
    10     1.44e-06   1.06e-07     
    11     5.05e-07   9.67e-09     
    12     1.70e-07   1.88e-09     
    13     7.17e-08   1.04e-09     
 ------------------------------------------------------------------------------
                                   CCSD Lambda converged.

           Orbital response amplitudes will be solved using DIIS.
           Start     Size      MaxIter   EConv     LConv     
           3         7         100       1.00e-06  1.00e-06  
 ------------------------------------------------------------------------------
            Enorm      Ldiff       Comment
 ------------------------------------------------------------------------------
     1     6.47e-02   1.25e-02     
     2     6.38e-02   1.61e-02     
     3     7.11e-02   2.31e-02     
     4     4.08e-03   3.50e-02     Switched to DIIS steps.
     5     2.82e-04   2.30e-04     
     6     1.14e-04   1.79e-05     
     7     4.23e-05   6.83e-06     
     8     8.66e-06   5.97e-07     
     9     2.06e-06   7.19e-07     
    10     6.36e-07   1.31e-07     
 ------------------------------------------------------------------------------
                                   Orbital response converged.

 CCSD calculation:   CPU 19.24 s  wall 19.20 s

 Total ccman2 time:   CPU 21.10 s  wall 21.05 s


 --------------------------------------------------------------

                    Orbital Energies (a.u.)
 --------------------------------------------------------------

 Alpha MOs
 -- Occupied --
-20.568 -11.284 -11.276 -11.222  -1.427  -1.012  -0.908  -0.819
 -0.703  -0.649  -0.589  -0.564  -0.526  -0.519  -0.440  -0.431
 -- Virtual --
  0.248   0.280   0.281   0.293   0.314   0.334   0.339   0.344
  0.428   0.508   0.672   0.731   0.774   0.791   0.836   0.877
  0.899   0.955   1.010   1.083   1.132   1.145   1.166   1.192
  1.209   1.222   1.252   1.292   1.326   1.515   1.655   1.716
  1.745   1.886   1.953   2.060   2.123   2.213   2.299   2.383
  2.469   2.491   2.509   2.636   2.652   2.686   2.753   2.884
  2.951   3.081   3.224   3.319   4.227   4.596   4.693   4.887
 --------------------------------------------------------------

          Ground-State Mulliken Net Atomic Charges

     Atom                 Charge (a.u.)
  ----------------------------------------
      1 H                     0.161971
      2 C                    -0.119234
      3 C                     0.083892
      4 O                    -0.468418
      5 H                     0.164149
      6 C                    -0.489557
      7 H                     0.164309
      8 H                     0.170195
      9 H                     0.160043
     10 H                     0.172649
  ----------------------------------------
  Sum of atomic charges =     0.000000

 -----------------------------------------------------------------
                    Cartesian Multipole Moments
 -----------------------------------------------------------------
    Charge (ESU x 10^10)
                 0.0000
    Dipole Moment (Debye)
         X      -1.2923      Y      -1.3832      Z      -0.6546
       Tot       2.0030
    Quadrupole Moments (Debye-Ang)
        XX     -27.2302     XY      -3.6912     YY     -26.3792
        XZ      -2.0373     YZ      -0.9736     ZZ     -24.2929
    Octopole Moments (Debye-Ang^2)
       XXX     -77.6611    XXY     -11.9967    XYY     -28.3915
       YYY     -20.8705    XXZ       1.9324    XYZ      -1.8802
       YYZ       4.4685    XZZ     -25.4074    YZZ      -6.6056
       ZZZ      18.3594
    Hexadecapole Moments (Debye-Ang^3)
      XXXX    -230.5795   XXXY     -21.8209   XXYY     -58.2249
      XYYY     -16.8641   YYYY     -89.1619   XXXZ      26.3030
      XXYZ     -10.6229   XYYZ      10.9370   YYYZ     -23.2048
      XXZZ     -70.6536   XYZZ      -5.0492   YYZZ     -46.0861
      XZZZ      33.4636   YZZZ     -23.0132   ZZZZ    -192.6369
 -----------------------------------------------------------------
 DrvMan completing analytic gradient of the correlated energy

 Entering direct/semidirect transformation code...
          The following integrals will be calculated:
                        (11|11)
 where index 1 (alpha) is the lowest     68 levels 
       index 1 (beta)  is the lowest     68 levels 

 Correlated dipole moment
            1
    1  -0.5084396
    2  -0.5441940
    3  -0.2575508
 Nuclear Gradient
             1             2             3             4             5
    1    2.57603728    8.56984910   -1.58003685   -8.64204083    1.26498229
    2   -1.87999445   -1.06294656    6.51936868   -9.39450205    0.92830974
    3    1.37742764   -4.14243423    2.21872526   -5.22643519   -3.07906210
             6             7             8             9            10
    1   -0.54697237   -1.33145201    1.13947635    1.27050980   -2.72035277
    2    1.77298480    2.98752182   -2.32506421    2.18944571    0.26487651
    3    6.07942070   -1.52844072    1.66837755    1.38024596    1.25217514
 One-electron Gradient
             1             2             3             4             5
    1   -2.56914778   -8.55353108    1.58074975    8.61690626   -1.26104233
    2    1.87576791    1.06507748   -6.50602164    9.37002734   -0.92492036
    3   -1.37272367    4.13978979   -2.20296331    5.21863226    3.07056235
             6             7             8             9            10
    1    0.54752272    1.32830865   -1.13609846   -1.26690973    2.71324199
    2   -1.77145424   -2.97859468    2.31828616   -2.18359584   -0.26457212
    3   -6.08417652    1.52438582   -1.66629302   -1.37717873   -1.25003496
 Energy read as -192.510386072
 Full Analytical Gradient: (in a.u., or Hartree/Bohr)
             1             2             3             4             5
    1    0.00688950    0.01631802    0.00071291   -0.02513457    0.00393995
    2   -0.00422655    0.00213092    0.01334704   -0.02447471    0.00338938
    3    0.00470396   -0.00264444    0.01576195   -0.00780293   -0.00849975
             6             7             8             9            10
    1    0.00055035   -0.00314336    0.00337790    0.00360008   -0.00711078
    2    0.00153056    0.00892714   -0.00677805    0.00584987    0.00030439
    3   -0.00475582   -0.00405490    0.00208453    0.00306723    0.00214018
 Gradient time:  CPU 23.24 s  wall 23.24 s
 ----------------------------------------------------------------
             Standard Nuclear Orientation (Angstroms)
    I     Atom           X                Y                Z
 ----------------------------------------------------------------
    1      H      -0.5396003454     1.1659003260     0.0872286366
    2      C       0.1788866951     0.5682133645     0.6252945742
    3      C       1.1760899588    -0.1925516770    -0.1100290962
    4      O       1.5080258155     1.0073321184     0.5338839151
    5      H      -0.1327205638     0.2470104325     1.6053914340
    6      C       1.2492222693    -0.1916255617    -1.6120028991
    7      H       1.5882490302    -1.0662337231     0.3716124236
    8      H       0.8139286891     0.7160013243    -2.0151045357
    9      H       0.7172428607    -1.0464886824    -2.0201005727
   10      H       2.2831855905    -0.2471579216    -1.9388238797
 ----------------------------------------------------------------
 Nuclear Repulsion Energy =   126.0576311717 hartrees
 There are       16 alpha and       16 beta electrons

                       Distance Matrix (Angstroms)
             H (  1)   C (  2)   C (  3)   O (  4)   H (  5)   C (  6)
   C (  2)  1.078410
   C (  3)  2.197247  1.453918
   O (  4)  2.101765  1.402780  1.401616
   H (  5)  1.820639  1.077432  2.202014  2.101967
   C (  6)  2.816052  2.593930  1.503753  2.471702  3.528993
   H (  7)  3.096940  2.173033  1.079432  2.081452  2.491698  2.194222
   H (  8)  2.540523  2.719711  2.141481  2.657816  3.771484  1.084324
   H (  9)  3.303809  3.145665  2.141990  3.371402  3.942052  1.086433
   H ( 10)  3.750966  3.415788  2.138488  2.879045  4.317669  1.085807
             H (  7)   H (  8)   H (  9)
   H (  8)  3.077719
   H (  9)  2.545453  1.765147
   H ( 10)  2.547928  1.758468  1.760032

 Requested basis set is 6-31G(d)
 There are 28 shells and 72 basis functions
 tim1(1): 
   0.0000000000000000     
 tim1(2): 
   0.0000000000000000     
 A cutoff of  1.0D-14 yielded    404 shell pairs
 There are      2734 function pairs
 Smallest overlap matrix eigenvalue = 3.68E-03
 Guess MOs from SCF MO coefficient file
 Reading MOs from coefficient file
 Reading MOs from coefficient file
 A restricted Hartree-Fock SCF calculation will be
 performed using Pulay DIIS extrapolation
 SCF converges when DIIS error is below 1.0E-08
 ---------------------------------------
  Cycle       Energy         DIIS Error
 ---------------------------------------
    1    -191.9097664673      1.25E-05
    2    -191.9097262602      3.65E-06
    3    -191.9097262715      2.18E-06
    4    -191.9097262746      5.54E-07
    5    -191.9097262752      1.52E-07
    6    -191.9097262753      5.42E-08
    7    -191.9097262753      1.58E-08
    8    -191.9097262753      3.36E-09 Convergence criterion met
 ---------------------------------------
 SCF time:  CPU 0.89 s  wall 0.83 s
 SCF   energy in the final basis set = -191.9097262753
 Total energy in the final basis set = -191.9097262753


 ------------------------------------------------------------------------------

   CCMAN2: suite of methods based on coupled cluster
           and equation of motion theories.

   Components:
   * libvmm-1.2-release
     by Evgeny Epifanovsky, Ilya Kaliman.
   * libtensor-2.4-trunk
     by Evgeny Epifanovsky, Michael Wormit, Dmitry Zuev, Sam Manzer.
   * libcc-2.4-trunk
     by Evgeny Epifanovsky, Arik Landau, Tomasz Kus, Kirill Khistyaev, 
        Dmitry Zuev, Prashant Manohar, Xintian Feng, Anna Krylov, 
        Matthew Goldey, Alec White, Thomas Jagau, Kaushik Nanda, 
        Anastasia Gunina.

   CCMAN original authors:
   Anna I. Krylov, C. David Sherrill, Steven R. Gwaltney,
   Edward F. C. Byrd (2000)
   Sergey V. Levchenko, Lyudmila V. Slipchenko, Tao Wang,
   Ana-Maria C. Cristian (2003)
   Piotr A. Pieniazek, C. Melania Oana, Evgeny Epifanovsky (2007)
   Prashant Manohar (2009)

 ------------------------------------------------------------------------------


 Calculation will run on 1 core with 1500MB of RAM.


 Occupation and symmetry of molecular orbitals

 Point group: C1 (1 irreducible representation).

                           A     All 
 -------------------------------------
 All molecular orbitals:
  - Alpha                  72    72  
  - Beta                   72    72  
 -------------------------------------
 Alpha orbitals:
  - Frozen occupied        4     4   
  - Active occupied        12    12  
  - Active virtual         56    56  
  - Frozen virtual         0     0   
 -------------------------------------
 Beta orbitals:
  - Frozen occupied        4     4   
  - Active occupied        12    12  
  - Active virtual         56    56  
  - Frozen virtual         0     0   
 -------------------------------------

 Import integrals:   CPU 0.00 s  wall 0.00 s


 Import integrals:   CPU 1.54 s  wall 1.54 s

 MP2 amplitudes:   CPU 0.01 s  wall 0.00 s

           CCSD T amplitudes will be solved using DIIS.

           Start     Size      MaxIter   EConv     TConv     
           3         7         100       0x1.ad7f29abcaf48p-24 0x1.4f8b588e368f1p-17 
 ------------------------------------------------------------------------------
           Energy (a.u.)   Ediff      Tdiff       Comment
 ------------------------------------------------------------------------------
          -192.47545512                           
     1    -192.49112253   1.57e-02   7.04e-01     
     2    -192.50648014   1.54e-02   9.01e-02     
     3    -192.50833241   1.85e-03   2.94e-02     
     4    -192.50994607   1.61e-03   1.03e-02     Switched to DIIS steps.
     5    -192.51036939   4.23e-04   6.20e-03     
     6    -192.51038060   1.12e-05   8.95e-04     
     7    -192.51038067   6.92e-08   3.15e-04     
     8    -192.51038062   5.24e-08   7.80e-05     
     9    -192.51038080   1.83e-07   2.82e-05     
    10    -192.51038086   6.11e-08   8.80e-06     
 ------------------------------------------------------------------------------
          -192.51038086                           CCSD T converged.

 SCF energy                 = -191.90972628
 MP2 energy                 = -192.47545512
 CCSD correlation energy     =   -0.60065459
 CCSD total energy           = -192.51038086

 CCSD  T1^2 = 0.0048  T2^2 = 0.2085  Leading amplitudes:

 Amplitude    Orbitals with energies
 -0.0117       15 (A) A                  ->    23 (A) A                   
              -0.4399                          0.3393                     
 -0.0117       15 (A) B                  ->    23 (A) B                   
              -0.4399                          0.3393                     
  0.0080       16 (A) A                  ->    31 (A) A                   
              -0.4305                          0.8365                     
  0.0080       16 (A) B                  ->    31 (A) B                   
              -0.4305                          0.8365                     

 Amplitude    Orbitals with energies
 -0.0252       16 (A) A      16 (A) B    ->    20 (A) A      20 (A) B     
              -0.4305       -0.4305            0.2927        0.2927       
  0.0252       16 (A) A      16 (A) B    ->    20 (A) B      20 (A) A     
              -0.4305       -0.4305            0.2927        0.2927       
  0.0252       16 (A) B      16 (A) A    ->    20 (A) A      20 (A) B     
              -0.4305       -0.4305            0.2927        0.2927       
 -0.0252       16 (A) B      16 (A) A    ->    20 (A) B      20 (A) A     
              -0.4305       -0.4305            0.2927        0.2927       

           CCSD Lambda amplitudes will be solved using DIIS.
           Start     Size      MaxIter   EConv     LConv     
           3         7         100       1.00e-07  1.00e-05  
 ------------------------------------------------------------------------------
            Enorm      Ldiff       Comment
 ------------------------------------------------------------------------------
     1     3.64e-02   2.09e-02     
     2     1.00e-02   4.23e-03     
     3     3.19e-03   4.76e-04     
     4     1.47e-03   4.74e-04     Switched to DIIS steps.
     5     3.32e-04   2.04e-04     
     6     1.30e-04   3.47e-05     
     7     3.45e-05   5.38e-06     
     8     1.29e-05   4.75e-07     
     9     4.18e-06   5.71e-07     
    10     1.44e-06   1.06e-07     
    11     5.04e-07   9.66e-09     
    12     1.70e-07   1.87e-09     
    13     7.15e-08   1.03e-09     
 ------------------------------------------------------------------------------
                                   CCSD Lambda converged.

           Orbital response amplitudes will be solved using DIIS.
           Start     Size      MaxIter   EConv     LConv     
           3         7         100       1.00e-06  1.00e-06  
 ------------------------------------------------------------------------------
            Enorm      Ldiff       Comment
 ------------------------------------------------------------------------------
     1     6.47e-02   1.25e-02     
     2     6.38e-02   1.61e-02     
     3     7.11e-02   2.31e-02     
     4     4.08e-03   3.50e-02     Switched to DIIS steps.
     5     2.82e-04   2.30e-04     
     6     1.14e-04   1.78e-05     
     7     4.23e-05   6.83e-06     
     8     8.66e-06   5.96e-07     
     9     2.05e-06   7.19e-07     
    10     6.35e-07   1.31e-07     
 ------------------------------------------------------------------------------
                                   Orbital response converged.

 CCSD calculation:   CPU 19.39 s  wall 19.36 s

 Total ccman2 time:   CPU 21.24 s  wall 21.20 s


 --------------------------------------------------------------

                    Orbital Energies (a.u.)
 --------------------------------------------------------------

 Alpha MOs
 -- Occupied --
-20.568 -11.284 -11.276 -11.222  -1.427  -1.012  -0.908  -0.819
 -0.703  -0.649  -0.589  -0.564  -0.526  -0.519  -0.440  -0.431
 -- Virtual --
  0.248   0.280   0.281   0.293   0.314   0.334   0.339   0.344
  0.428   0.508   0.672   0.731   0.774   0.791   0.836   0.877
  0.899   0.955   1.010   1.083   1.132   1.145   1.166   1.192
  1.209   1.222   1.252   1.292   1.326   1.514   1.655   1.716
  1.745   1.886   1.953   2.060   2.123   2.213   2.299   2.384
  2.469   2.491   2.510   2.636   2.652   2.686   2.753   2.884
  2.951   3.081   3.224   3.319   4.227   4.596   4.693   4.887
 --------------------------------------------------------------

          Ground-State Mulliken Net Atomic Charges

     Atom                 Charge (a.u.)
  ----------------------------------------
      1 H                     0.162035
      2 C                    -0.119251
      3 C                     0.083868
      4 O                    -0.468472
      5 H                     0.164186
      6 C                    -0.489551
      7 H                     0.164312
      8 H                     0.170187
      9 H                     0.160042
     10 H                     0.172645
  ----------------------------------------
  Sum of atomic charges =     0.000000

 -----------------------------------------------------------------
                    Cartesian Multipole Moments
 -----------------------------------------------------------------
    Charge (ESU x 10^10)
                 0.0000
    Dipole Moment (Debye)
         X      -1.2923      Y      -1.3828      Z      -0.6544
       Tot       2.0026
    Quadrupole Moments (Debye-Ang)
        XX     -27.2320     XY      -3.6917     YY     -26.3772
        XZ      -2.0376     YZ      -0.9740     ZZ     -24.2922
    Octopole Moments (Debye-Ang^2)
       XXX     -77.6651    XXY     -11.9992    XYY     -28.3930
       YYY     -20.8685    XXZ       1.9316    XYZ      -1.8807
       YYZ       4.4682    XZZ     -25.4088    YZZ      -6.6063
       ZZZ      18.3612
    Hexadecapole Moments (Debye-Ang^3)
      XXXX    -230.5810   XXXY     -21.8244   XXYY     -58.2266
      XYYY     -16.8675   YYYY     -89.1635   XXXZ      26.3012
      XXYZ     -10.6240   XYYZ      10.9367   YYYZ     -23.2055
      XXZZ     -70.6540   XYZZ      -5.0500   YYZZ     -46.0876
      XZZZ      33.4637   YZZZ     -23.0135   ZZZZ    -192.6344
 -----------------------------------------------------------------
 DrvMan completing analytic gradient of the correlated energy

 Entering direct/semidirect transformation code...
          The following integrals will be calculated:
                        (11|11)
 where index 1 (alpha) is the lowest     68 levels 
       index 1 (beta)  is the lowest     68 levels 

 Correlated dipole moment
            1
    1  -0.5084233
    2  -0.5440471
    3  -0.2574670
 Nuclear Gradient
             1             2             3             4             5
    1    2.57189670    8.57282784   -1.58027450   -8.63995212    1.26441824
    2   -1.88579399   -1.05741010    6.52032363   -9.39542925    0.92864408
    3    1.37876412   -4.14381084    2.21841787   -5.22574041   -3.07947543
             6             7             8             9            10
    1   -0.54690322   -1.33170099    1.13950177    1.27051208   -2.72032579
    2    1.77289613    2.98750273   -2.32506320    2.18945198    0.26487798
    3    6.07938707   -1.52833592    1.66841301    1.38022564    1.25215487
 One-electron Gradient
             1             2             3             4             5
    1   -2.56486412   -8.55660071    1.58099198    8.61472700   -1.26044935
    2    1.88161136    1.05947278   -6.50700788    9.37101851   -0.92526850
    3   -1.37405376    4.14116749   -2.20263291    5.21789531    3.07098852
             6             7             8             9            10
    1    0.54745160    1.32856527   -1.13612453   -1.26691185    2.71321470
    2   -1.77136211   -2.97857395    2.31828559   -2.18360236   -0.26457345
    3   -6.08414190    1.52427815   -1.66632875   -1.37715780   -1.25001435
 Energy read as -192.510380862
 Full Analytical Gradient: (in a.u., or Hartree/Bohr)
             1             2             3             4             5
    1    0.00703258    0.01622713    0.00071748   -0.02522511    0.00396889
    2   -0.00418262    0.00206268    0.01331576   -0.02441074    0.00337558
    3    0.00471036   -0.00264334    0.01578497   -0.00784509   -0.00848691
             6             7             8             9            10
    1    0.00054838   -0.00313572    0.00337724    0.00360023   -0.00711110
    2    0.00153402    0.00892878   -0.00677762    0.00584963    0.00030453
    3   -0.00475483   -0.00405777    0.00208426    0.00306784    0.00214052
 Gradient time:  CPU 23.18 s  wall 23.19 s
 ----------------------------------------------------------------
             Standard Nuclear Orientation (Angstroms)
    I     Atom           X                Y                Z
 ----------------------------------------------------------------
    1      H      -0.5396003454     1.1639003260     0.0872286366
    2      C       0.1788866951     0.5682133645     0.6252945742
    3      C       1.1760899588    -0.1925516770    -0.1100290962
    4      O       1.5080258155     1.0073321184     0.5338839151
    5      H      -0.1327205638     0.2470104325     1.6053914340
    6      C       1.2492222693    -0.1916255617    -1.6120028991
    7      H       1.5882490302    -1.0662337231     0.3716124236
    8      H       0.8139286891     0.7160013243    -2.0151045357
    9      H       0.7172428607    -1.0464886824    -2.0201005727
   10      H       2.2831855905    -0.2471579216    -1.9388238797
 ----------------------------------------------------------------
 Nuclear Repulsion Energy =   126.0623628344 hartrees
 There are       16 alpha and       16 beta electrons

                       Distance Matrix (Angstroms)
             H (  1)   C (  2)   C (  3)   O (  4)   H (  5)   C (  6)
   C (  2)  1.077303
   C (  3)  2.196011  1.453918
   O (  4)  2.101615  1.402780  1.401616
   H (  5)  1.819631  1.077432  2.202014  2.101967
   C (  6)  2.815089  2.593930  1.503753  2.471702  3.528993
   H (  7)  3.095499  2.173033  1.079432  2.081452  2.491698  2.194222
   H (  8)  2.540169  2.719711  2.141481  2.657816  3.771484  1.084324
   H (  9)  3.302470  3.145665  2.141990  3.371402  3.942052  1.086433
   H ( 10)  3.750213  3.415788  2.138488  2.879045  4.317669  1.085807
             H (  7)   H (  8)   H (  9)
   H (  8)  3.077719
   H (  9)  2.545453  1.765147
   H ( 10)  2.547928  1.758468  1.760032

 Requested basis set is 6-31G(d)
 There are 28 shells and 72 basis functions
 tim1(1): 
   0.0000000000000000     
 tim1(2): 
   0.0000000000000000     
 A cutoff of  1.0D-14 yielded    404 shell pairs
 There are      2734 function pairs
 Smallest overlap matrix eigenvalue = 3.68E-03
 Guess MOs from SCF MO coefficient file
 Reading MOs from coefficient file
 Reading MOs from coefficient file
 A restricted Hartree-Fock SCF calculation will be
 performed using Pulay DIIS extrapolation
 SCF converges when DIIS error is below 1.0E-08
 ---------------------------------------
  Cycle       Energy         DIIS Error
 ---------------------------------------
    1    -191.9101620217      4.22E-05
    2    -191.9097263426      7.31E-06
    3    -191.9097263889      2.54E-06
    4    -191.9097263942      8.69E-07
    5    -191.9097263952      2.93E-07
    6    -191.9097263954      1.12E-07
    7    -191.9097263954      4.30E-08
    8    -191.9097263954      1.27E-08
    9    -191.9097263954      3.28E-09 Convergence criterion met
 ---------------------------------------
 SCF time:  CPU 0.96 s  wall 0.90 s
 SCF   energy in the final basis set = -191.9097263954
 Total energy in the final basis set = -191.9097263954


 ------------------------------------------------------------------------------

   CCMAN2: suite of methods based on coupled cluster
           and equation of motion theories.

   Components:
   * libvmm-1.2-release
     by Evgeny Epifanovsky, Ilya Kaliman.
   * libtensor-2.4-trunk
     by Evgeny Epifanovsky, Michael Wormit, Dmitry Zuev, Sam Manzer.
   * libcc-2.4-trunk
     by Evgeny Epifanovsky, Arik Landau, Tomasz Kus, Kirill Khistyaev, 
        Dmitry Zuev, Prashant Manohar, Xintian Feng, Anna Krylov, 
        Matthew Goldey, Alec White, Thomas Jagau, Kaushik Nanda, 
        Anastasia Gunina.

   CCMAN original authors:
   Anna I. Krylov, C. David Sherrill, Steven R. Gwaltney,
   Edward F. C. Byrd (2000)
   Sergey V. Levchenko, Lyudmila V. Slipchenko, Tao Wang,
   Ana-Maria C. Cristian (2003)
   Piotr A. Pieniazek, C. Melania Oana, Evgeny Epifanovsky (2007)
   Prashant Manohar (2009)

 ------------------------------------------------------------------------------


 Calculation will run on 1 core with 1500MB of RAM.


 Occupation and symmetry of molecular orbitals

 Point group: C1 (1 irreducible representation).

                           A     All 
 -------------------------------------
 All molecular orbitals:
  - Alpha                  72    72  
  - Beta                   72    72  
 -------------------------------------
 Alpha orbitals:
  - Frozen occupied        4     4   
  - Active occupied        12    12  
  - Active virtual         56    56  
  - Frozen virtual         0     0   
 -------------------------------------
 Beta orbitals:
  - Frozen occupied        4     4   
  - Active occupied        12    12  
  - Active virtual         56    56  
  - Frozen virtual         0     0   
 -------------------------------------

 Import integrals:   CPU 0.00 s  wall 0.00 s


 Import integrals:   CPU 1.54 s  wall 1.54 s

 MP2 amplitudes:   CPU 0.00 s  wall 0.00 s

           CCSD T amplitudes will be solved using DIIS.

           Start     Size      MaxIter   EConv     TConv     
           3         7         100       0x1.ad7f29abcaf48p-24 0x1.4f8b588e368f1p-17 
 ------------------------------------------------------------------------------
           Energy (a.u.)   Ediff      Tdiff       Comment
 ------------------------------------------------------------------------------
          -192.47544184                           
     1    -192.49110960   1.57e-02   7.04e-01     
     2    -192.50646437   1.54e-02   9.01e-02     
     3    -192.50831628   1.85e-03   2.94e-02     
     4    -192.50992941   1.61e-03   1.03e-02     Switched to DIIS steps.
     5    -192.51035255   4.23e-04   6.19e-03     
     6    -192.51036375   1.12e-05   8.95e-04     
     7    -192.51036382   6.62e-08   3.14e-04     
     8    -192.51036377   5.30e-08   7.79e-05     
     9    -192.51036395   1.83e-07   2.82e-05     
    10    -192.51036401   6.11e-08   8.80e-06     
 ------------------------------------------------------------------------------
          -192.51036401                           CCSD T converged.

 SCF energy                 = -191.90972640
 MP2 energy                 = -192.47544184
 CCSD correlation energy     =   -0.60063762
 CCSD total energy           = -192.51036401

 CCSD  T1^2 = 0.0048  T2^2 = 0.2084  Leading amplitudes:

 Amplitude    Orbitals with energies
 -0.0118       15 (A) A                  ->    23 (A) A                   
              -0.4399                          0.3393                     
 -0.0118       15 (A) B                  ->    23 (A) B                   
              -0.4399                          0.3393                     
  0.0080       16 (A) A                  ->    31 (A) A                   
              -0.4305                          0.8365                     
  0.0080       16 (A) B                  ->    31 (A) B                   
              -0.4305                          0.8365                     

 Amplitude    Orbitals with energies
 -0.0253       16 (A) A      16 (A) B    ->    20 (A) A      20 (A) B     
              -0.4305       -0.4305            0.2927        0.2927       
  0.0253       16 (A) A      16 (A) B    ->    20 (A) B      20 (A) A     
              -0.4305       -0.4305            0.2927        0.2927       
  0.0253       16 (A) B      16 (A) A    ->    20 (A) A      20 (A) B     
              -0.4305       -0.4305            0.2927        0.2927       
 -0.0253       16 (A) B      16 (A) A    ->    20 (A) B      20 (A) A     
              -0.4305       -0.4305            0.2927        0.2927       

           CCSD Lambda amplitudes will be solved using DIIS.
           Start     Size      MaxIter   EConv     LConv     
           3         7         100       1.00e-07  1.00e-05  
 ------------------------------------------------------------------------------
            Enorm      Ldiff       Comment
 ------------------------------------------------------------------------------
     1     3.64e-02   2.09e-02     
     2     1.00e-02   4.23e-03     
     3     3.19e-03   4.76e-04     
     4     1.47e-03   4.74e-04     Switched to DIIS steps.
     5     3.32e-04   2.04e-04     
     6     1.30e-04   3.47e-05     
     7     3.45e-05   5.38e-06     
     8     1.29e-05   4.75e-07     
     9     4.18e-06   5.71e-07     
    10     1.44e-06   1.06e-07     
    11     5.05e-07   9.65e-09     
    12     1.71e-07   1.90e-09     
    13     7.20e-08   1.05e-09     
 ------------------------------------------------------------------------------
                                   CCSD Lambda converged.

           Orbital response amplitudes will be solved using DIIS.
           Start     Size      MaxIter   EConv     LConv     
           3         7         100       1.00e-06  1.00e-06  
 ------------------------------------------------------------------------------
            Enorm      Ldiff       Comment
 ------------------------------------------------------------------------------
     1     6.47e-02   1.25e-02     
     2     6.38e-02   1.61e-02     
     3     7.10e-02   2.31e-02     
     4     4.07e-03   3.50e-02     Switched to DIIS steps.
     5     2.82e-04   2.30e-04     
     6     1.14e-04   1.78e-05     
     7     4.23e-05   6.83e-06     
     8     8.65e-06   5.93e-07     
     9     2.05e-06   7.18e-07     
    10     6.35e-07   1.31e-07     
 ------------------------------------------------------------------------------
                                   Orbital response converged.

 CCSD calculation:   CPU 19.27 s  wall 19.23 s

 Total ccman2 time:   CPU 21.11 s  wall 21.07 s


 --------------------------------------------------------------

                    Orbital Energies (a.u.)
 --------------------------------------------------------------

 Alpha MOs
 -- Occupied --
-20.568 -11.284 -11.276 -11.222  -1.427  -1.012  -0.908  -0.819
 -0.703  -0.649  -0.589  -0.564  -0.526  -0.519  -0.440  -0.431
 -- Virtual --
  0.248   0.280   0.281   0.293   0.314   0.334   0.339   0.344
  0.428   0.508   0.672   0.730   0.774   0.791   0.836   0.877
  0.899   0.955   1.010   1.083   1.132   1.145   1.166   1.192
  1.209   1.222   1.252   1.292   1.326   1.515   1.655   1.716
  1.745   1.886   1.953   2.060   2.123   2.213   2.299   2.384
  2.469   2.491   2.509   2.636   2.652   2.686   2.753   2.884
  2.951   3.081   3.224   3.319   4.227   4.596   4.693   4.887
 --------------------------------------------------------------

          Ground-State Mulliken Net Atomic Charges

     Atom                 Charge (a.u.)
  ----------------------------------------
      1 H                     0.162113
      2 C                    -0.119176
      3 C                     0.083783
      4 O                    -0.468485
      5 H                     0.164151
      6 C                    -0.489559
      7 H                     0.164297
      8 H                     0.170175
      9 H                     0.160041
     10 H                     0.172659
  ----------------------------------------
  Sum of atomic charges =     0.000000

 -----------------------------------------------------------------
                    Cartesian Multipole Moments
 -----------------------------------------------------------------
    Charge (ESU x 10^10)
                -0.0000
    Dipole Moment (Debye)
         X      -1.2930      Y      -1.3830      Z      -0.6550
       Tot       2.0034
    Quadrupole Moments (Debye-Ang)
        XX     -27.2304     XY      -3.6909     YY     -26.3787
        XZ      -2.0375     YZ      -0.9738     ZZ     -24.2920
    Octopole Moments (Debye-Ang^2)
       XXX     -77.6662    XXY     -11.9960    XYY     -28.3923
       YYY     -20.8654    XXZ       1.9319    XYZ      -1.8803
       YYZ       4.4686    XZZ     -25.4088    YZZ      -6.6038
       ZZZ      18.3606
    Hexadecapole Moments (Debye-Ang^3)
      XXXX    -230.5753   XXXY     -21.8262   XXYY     -58.2230
      XYYY     -16.8681   YYYY     -89.1440   XXXZ      26.3009
      XXYZ     -10.6226   XYYZ      10.9365   YYYZ     -23.2039
      XXZZ     -70.6519   XYZZ      -5.0514   YYZZ     -46.0827
      XZZZ      33.4634   YZZZ     -23.0124   ZZZZ    -192.6366
 -----------------------------------------------------------------
 DrvMan completing analytic gradient of the correlated energy

 Entering direct/semidirect transformation code...
          The following integrals will be calculated:
                        (11|11)
 where index 1 (alpha) is the lowest     68 levels 
       index 1 (beta)  is the lowest     68 levels 

 Correlated dipole moment
            1
    1  -0.5087009
    2  -0.5441280
    3  -0.2576820
 Nuclear Gradient
             1             2             3             4             5
    1    2.57608309    8.57089532   -1.58050362   -8.64245341    1.26466205
    2   -1.87911885   -1.06428773    6.51933302   -9.39430466    0.92844636
    3    1.38106399   -4.14663187    2.21990996   -5.22680983   -3.07930506
             6             7             8             9            10
    1   -0.54684097   -1.33135689    1.13944123    1.27051549   -2.72044228
    2    1.77296307    2.98762974   -2.32500495    2.18943128    0.26491272
    3    6.07945312   -1.52852295    1.66843319    1.38022491    1.25218454
 One-electron Gradient
             1             2             3             4             5
    1   -2.56858552   -8.55512627    1.58117831    8.61729197   -1.26071554
    2    1.87438438    1.06691283   -6.50596241    9.36982839   -0.92506013
    3   -1.37597056    4.14361907   -2.20418898    5.21901898    3.07081081
             6             7             8             9            10
    1    0.54739578    1.32820789   -1.13606336   -1.26691555    2.71333229
    2   -1.77143222   -2.97870551    2.31822568   -2.18358144   -0.26460958
    3   -6.08421214    1.52447031   -1.66634622   -1.37715666   -1.25004462
 Energy read as -192.510364010
 Full Analytical Gradient: (in a.u., or Hartree/Bohr)
             1             2             3             4             5
    1    0.00749757    0.01576905    0.00067469   -0.02516144    0.00394651
    2   -0.00473447    0.00262510    0.01337062   -0.02447627    0.00338624
[...]
     2   -2.918735178438878e-04  -7.315861198644116e-04  -3.112781206468646e-04
     3    1.160295504690961e-03   8.683928476409190e-04   2.022686852077952e-03
     4    4.075422069287213e-04   1.732858525421148e-03  -8.288377858707827e-04
     5    3.273590017221240e-05  -2.347889537622047e-05  -3.699353976550322e-06
     6   -1.121700832452177e-01  -2.299151725628701e-01  -8.421701481093673e-02
     7    6.210237224735303e-05  -7.386653766185000e-06  -6.583312175957342e-04
     8   -1.532437102997843e-02  -1.983249652691304e-02  -1.145723553295806e-02
     9    1.240178596271701e-01   2.454365986927012e-01   9.373808848879642e-02
    10    2.181071317597563e-03   2.529708979110235e-03   1.811226003216800e-03

Order 1, Length 30
    Atom      X          Y          Z
     1    4.309394460956135e-04  -1.083184970661760e-04  -1.424025226779399e-04
     2   -6.702226108593928e-04  -8.824975591409029e-04   1.792678416026102e-03
     3   -1.829206338346542e-02  -3.054174185551600e-02  -7.441454610252453e-03
     4    8.870855674159824e-04  -5.127787840537657e-04  -9.807207388677429e-03
     5    2.215082471590939e-04   1.746302480081773e-04  -4.591070461324498e-05
     6   -5.288482311955212e-02  -8.268176804491882e-02  -8.984920382115338e-02
     7    1.081678612075639e-04   1.409586160877456e-03   9.835958700536683e-04
     8    7.898242132951563e-03   1.014911094441962e-02   5.321093290398805e-03
     9    5.768117318602684e-02   9.373808848879642e-02   9.496914445554015e-02
    10    4.619760096056618e-03   9.255194355323015e-03   4.219480240524690e-03


    10 Order 1, Length 30
    Atom      X          Y          Z
     1    1.227356201954489e-04  -2.913032503033126e-04  -1.673837969567219e-04
     2    9.933754304706941e-04  -1.146396270441764e-03  -6.469947693382074e-04
     3    8.247614813729258e-04  -1.371386277306075e-04  -1.013569281890479e-03
     4    7.619670128748699e-04   1.473072895826333e-03   1.328487509012544e-03
     5    2.348112545602531e-04   1.074800660936298e-04   1.651767885211275e-06
     6   -3.167506616275424e-01   1.458587959297528e-02   8.125578494748564e-02
     7    2.792589275038507e-04  -1.541024470359388e-04   6.208628203517525e-04
     8   -1.149030942468585e-02  -8.157629074350300e-04   3.510704943015506e-03
     9   -1.468629158286752e-02   2.181071317597563e-03   4.619760096056618e-03
    10    3.397102723464884e-01  -1.580314656884381e-02  -8.950932364384041e-02

Order 1, Length 30
    Atom      X          Y          Z
     1   -2.951581539325131e-04   3.678505458600145e-04   2.176755538669019e-04
     2    8.242919119363382e-04   7.478078785945144e-05  -1.047029693005258e-03
     3   -2.774313554615805e-04   1.877856972456253e-04  -2.875912547012174e-04
     4    4.375512147881300e-04   5.075564058180402e-04   8.378869009453416e-04
     5   -2.344073428743663e-04  -1.002391255574164e-04  -2.209634384527390e-04
     6    1.435606062375987e-02  -5.136748986959855e-02  -3.419849982738483e-03
     7   -4.589816909325629e-04  -1.249038985424660e-04  -1.537165992843485e-04
     8    2.870624999167266e-02   1.124980669902243e-04  -9.510943960705858e-03
     9   -2.725518076061216e-02   2.529708979110235e-03   9.255194355323015e-03
    10   -1.580314656884381e-02   4.781208790945253e-02   4.329301732110253e-03

Order 1, Length 30
    Atom      X          Y          Z
     1    2.118281057601468e-05   1.582537070901883e-04   1.843260474067647e-04
     2    1.124591146486101e-04   3.442385979953022e-03  -6.206997820686750e-03
     3    3.896195456248644e-02  -3.928062149527433e-03  -1.301542201152497e-02
     4   -2.732113846927407e-03  -1.134531491112706e-04   4.134820963260480e-03
     5    8.050913361581132e-05  -1.738328588216382e-03  -7.461022464696723e-04
     6    8.016880191965969e-02  -3.859586239366220e-03  -7.293975311871119e-02
     7   -8.359542366676612e-04   1.722736692419126e-04   1.221166089213493e-03
     8   -1.282861242605119e-02  -2.742992032276751e-04   3.958738048546615e-03
     9   -1.343886125017768e-02   1.811226003216800e-03   4.219480240524690e-03
    10   -8.950932364384041e-02   4.329301732110253e-03   7.918938829611347e-02




 # Finishing finite difference calculation for IDERIV #
 ######################################################
 ######################################################
 Requested basis set is 6-31G(d)
 There are 28 shells and 72 basis functions
 **********************************************************************
 **                                                                  **
 **                       VIBRATIONAL ANALYSIS                       **
 **                       --------------------                       **
 **                                                                  **
 **        VIBRATIONAL FREQUENCIES (CM**-1) AND NORMAL MODES         **
 **     FORCE CONSTANTS (mDYN/ANGSTROM) AND REDUCED MASSES (AMU)     **
 **                  INFRARED INTENSITIES (KM/MOL)                   **
 **                                                                  **
 **********************************************************************


 Mode:                 1                      2                      3
 Frequency:      -214.87                 317.87                 377.90
 Force Cnst:      0.0296                 0.1347                 0.1862
 Red. Mass:       1.0892                 2.2620                 2.2132
 IR Active:          YES                    YES                    YES
 IR Intens:        0.548                  3.795                  4.638
 Raman Active:       YES                    YES                    YES
               X      Y      Z        X      Y      Z        X      Y      Z
 H          0.044  0.095 -0.002   -0.166  0.031  0.434   -0.016  0.218  0.331
 C          0.002  0.046 -0.000    0.002  0.012  0.185   -0.006  0.005  0.078
 C         -0.042 -0.013 -0.003   -0.166 -0.031 -0.025   -0.023  0.161 -0.119
 O          0.030 -0.039  0.004   -0.023 -0.003 -0.158   -0.005  0.019  0.148
 H         -0.024  0.065 -0.002    0.307 -0.024  0.275    0.036 -0.331 -0.016
 C          0.001  0.006 -0.001    0.124  0.011 -0.009    0.031 -0.116 -0.134
 H         -0.090 -0.038 -0.009   -0.134 -0.017 -0.019   -0.090  0.094 -0.175
 H         -0.483 -0.252 -0.061    0.356  0.091 -0.079    0.048 -0.284 -0.529
 H          0.496 -0.302 -0.000    0.233  0.078 -0.284    0.040 -0.284  0.199
 H          0.049  0.570  0.056    0.247 -0.022  0.380    0.039 -0.302 -0.078
 TransDip  -0.011  0.021  0.002    0.014  0.018  0.058   -0.013 -0.003 -0.068

 Mode:                 4                      5                      6
 Frequency:       824.94                 893.33                 924.42
 Force Cnst:      0.8546                 0.5760                 1.2288
 Red. Mass:       2.1314                 1.2251                 2.4406
 IR Active:          YES                    YES                    YES
 IR Intens:        5.273                  0.241                 29.185
 Raman Active:       YES                    YES                    YES
               X      Y      Z        X      Y      Z        X      Y      Z
 H         -0.090  0.167  0.254   -0.043  0.308  0.352    0.036 -0.276 -0.176
 C         -0.049 -0.089 -0.110    0.023  0.056 -0.019    0.145 -0.055 -0.079
 C         -0.023  0.114 -0.032    0.023 -0.054 -0.001   -0.150 -0.075 -0.024
 O          0.087 -0.022 -0.088   -0.047  0.032  0.009    0.061  0.172  0.099
 H          0.124 -0.598 -0.227    0.124 -0.370 -0.117   -0.035 -0.417 -0.256
 C         -0.013  0.057  0.201    0.057 -0.063 -0.025   -0.098 -0.057  0.002
 H         -0.334 -0.047 -0.044   -0.243 -0.031  0.271   -0.099 -0.001  0.038
 H         -0.037 -0.035  0.035   -0.140  0.055  0.444    0.149  0.073  0.029
 H         -0.028 -0.054  0.454   -0.115  0.111 -0.162    0.150  0.023 -0.477
 H         -0.018 -0.062  0.214   -0.055  0.151 -0.404    0.063  0.088  0.483
 TransDip  -0.069 -0.025  0.007   -0.005  0.012 -0.009   -0.059 -0.142 -0.079

 Mode:                 7                      8                      9
 Frequency:      1049.15                1059.80                1146.44
 Force Cnst:      0.7628                 2.0669                 1.0727
 Red. Mass:       1.1763                 3.1234                 1.3853
 IR Active:          YES                    YES                    YES
 IR Intens:        8.762                 14.533                  4.929
 Raman Active:       YES                    YES                    YES
               X      Y      Z        X      Y      Z        X      Y      Z
 H          0.261  0.461  0.125   -0.194 -0.188 -0.063   -0.148  0.242  0.355
 C         -0.048 -0.008  0.013   -0.226 -0.136  0.015   -0.009 -0.031 -0.122
 C          0.040  0.043 -0.011    0.020  0.152  0.135    0.080 -0.008 -0.019
 O          0.002 -0.036 -0.024    0.201  0.028 -0.010   -0.038  0.004  0.057
 H         -0.269 -0.128 -0.096   -0.054  0.178  0.161    0.587  0.447  0.220
 C         -0.057 -0.056  0.018   -0.006 -0.085 -0.133   -0.067 -0.016  0.014
 H          0.531  0.279 -0.002   -0.471  0.023  0.339   -0.103 -0.130 -0.084
 H          0.107  0.079  0.146    0.047  0.083  0.160    0.105  0.046 -0.024
 H          0.073  0.032 -0.312    0.007  0.089 -0.499    0.095 -0.031 -0.153
 H          0.037  0.099  0.277    0.008  0.188 -0.143    0.026  0.027  0.291
 TransDip   0.049  0.077  0.025   -0.119 -0.009  0.025    0.043  0.055 -0.015

 Mode:                10                     11                     12
 Frequency:      1172.95                1192.45                1225.16
 Force Cnst:      1.1685                 1.6375                 1.7275
 Red. Mass:       1.4415                 1.9546                 1.9534
 IR Active:          YES                    YES                    YES
 IR Intens:        3.616                  3.046                  7.631
 Raman Active:       YES                    YES                    YES
               X      Y      Z        X      Y      Z        X      Y      Z
 H          0.573  0.512  0.043   -0.069  0.112  0.128   -0.180  0.205  0.309
 C          0.028 -0.147  0.026   -0.012  0.067 -0.012   -0.078 -0.041 -0.091
 C         -0.013 -0.049  0.013    0.110 -0.080  0.187   -0.152 -0.119  0.071
 O         -0.016  0.089 -0.024   -0.021 -0.014 -0.041    0.099  0.057  0.032
 H         -0.314  0.279  0.065   -0.022 -0.453 -0.182    0.185  0.075  0.028
 C          0.015  0.039 -0.014   -0.081  0.096 -0.093    0.063  0.057 -0.034
 H         -0.329 -0.202  0.013   -0.101 -0.136  0.301    0.669  0.240  0.017
 H         -0.032 -0.032 -0.116    0.140 -0.041 -0.639   -0.151 -0.100 -0.154
 H         -0.005 -0.024  0.132    0.184 -0.085 -0.080   -0.085  0.014  0.216
 H         -0.006 -0.072 -0.060   -0.005 -0.150  0.150   -0.029 -0.127 -0.275
 TransDip  -0.023 -0.046  0.033    0.032 -0.004  0.046   -0.077 -0.043 -0.010

 Mode:                13                     14                     15
 Frequency:      1349.71                1438.98                1499.81
 Force Cnst:      1.4207                 1.5407                 1.8857
 Red. Mass:       1.3236                 1.2629                 1.4228
 IR Active:          YES                    YES                    YES
 IR Intens:        4.910                  4.312                 16.087
 Raman Active:       YES                    YES                    YES
               X      Y      Z        X      Y      Z        X      Y      Z
 H          0.182 -0.023 -0.106   -0.121 -0.029  0.091    0.364  0.104 -0.323
 C          0.088 -0.053 -0.034   -0.015  0.011  0.010    0.014 -0.006 -0.021
 C         -0.058  0.065 -0.010    0.024 -0.040 -0.021   -0.053  0.064  0.136
 O         -0.041 -0.067  0.002    0.016  0.011  0.004   -0.038 -0.019 -0.011
 H          0.224  0.100  0.049   -0.146  0.024 -0.019    0.483 -0.228  0.031
 C         -0.002  0.029 -0.015   -0.009  0.018 -0.138    0.033 -0.042 -0.078
 H         -0.050  0.517  0.763   -0.024  0.030  0.158    0.088 -0.140 -0.339
 H         -0.024 -0.016 -0.097   -0.077  0.234  0.458   -0.031 -0.003  0.051
 H         -0.023  0.012  0.053   -0.065 -0.254  0.528   -0.346  0.085  0.159
 H          0.001 -0.016  0.015    0.179 -0.057  0.501    0.120  0.298  0.163
 TransDip   0.047  0.047 -0.025    0.016 -0.049  0.042   -0.004  0.074  0.105

 Mode:                16                     17                     18
 Frequency:      1524.10                1538.40                1606.28
 Force Cnst:      1.4357                 1.4693                 3.3146
 Red. Mass:       1.0491                 1.0537                 2.1804
 IR Active:          YES                    YES                    YES
 IR Intens:        4.108                  5.321                 12.464
 Raman Active:       YES                    YES                    YES
               X      Y      Z        X      Y      Z        X      Y      Z
 H          0.102  0.027 -0.102   -0.160 -0.035  0.180   -0.320 -0.106  0.514
 C         -0.007 -0.002  0.000    0.015 -0.003 -0.004    0.185 -0.048 -0.086
 C         -0.031  0.002  0.013    0.010 -0.028 -0.024   -0.071  0.138  0.166
 O         -0.001  0.001  0.001    0.008  0.004 -0.000   -0.048 -0.058 -0.027
 H          0.135 -0.052  0.024   -0.222  0.098 -0.036   -0.491  0.265 -0.193
 C         -0.050 -0.006 -0.002   -0.004 -0.046  0.014    0.009 -0.013 -0.044
 H          0.041  0.008 -0.040   -0.015  0.027  0.100    0.036 -0.064 -0.300
 H          0.544  0.336  0.135    0.359  0.000 -0.314   -0.019  0.068  0.164
 H          0.397 -0.376  0.211   -0.378  0.102  0.228    0.109 -0.067 -0.069
 H         -0.144  0.115 -0.381    0.031  0.657  0.010   -0.013 -0.092 -0.111
 TransDip   0.061  0.012  0.018   -0.002  0.067 -0.031    0.045  0.071  0.075

 Mode:                19                     20                     21
 Frequency:      3169.44                3248.99                3252.85
 Force Cnst:      6.1324                 6.8566                 6.5710
 Red. Mass:       1.0361                 1.1025                 1.0540
 IR Active:          YES                    YES                    YES
 IR Intens:       14.917                 19.042                 21.899
 Raman Active:       YES                    YES                    YES
               X      Y      Z        X      Y      Z        X      Y      Z
 H          0.003 -0.003  0.004   -0.011  0.009 -0.009   -0.446  0.384 -0.357
 C         -0.000  0.000 -0.000    0.001 -0.001 -0.001    0.053 -0.017 -0.023
 C          0.001 -0.002 -0.001   -0.001 -0.000 -0.000    0.005 -0.011  0.012
 O          0.000  0.000  0.000    0.000  0.000  0.000    0.000 -0.001 -0.001
 H         -0.001  0.001  0.000   -0.003 -0.005  0.014   -0.176 -0.209  0.611
 C         -0.004  0.008  0.050   -0.081 -0.044 -0.003   -0.006  0.015 -0.002
 H         -0.010  0.021 -0.008    0.003 -0.006  0.003   -0.083  0.173 -0.096
 H         -0.206  0.427 -0.179   -0.035  0.030 -0.017    0.060 -0.122  0.053
 H         -0.313 -0.497 -0.230    0.331  0.549  0.262   -0.035 -0.052 -0.026
 H          0.560 -0.028 -0.164    0.679 -0.047 -0.214    0.047  0.001 -0.015
 TransDip  -0.014  0.030  0.119   -0.121 -0.070 -0.003    0.141 -0.034 -0.038

 Mode:                22                     23                     24
 Frequency:      3260.59                3277.44                3341.85
 Force Cnst:      6.8693                 6.9259                 7.3687
 Red. Mass:       1.0967                 1.0944                 1.1199
 IR Active:          YES                    YES                    YES
 IR Intens:        6.811                 40.653                 32.769
 Raman Active:       YES                    YES                    YES
               X      Y      Z        X      Y      Z        X      Y      Z
 H         -0.135  0.114 -0.108    0.084 -0.068  0.070    0.448 -0.382  0.336
 C          0.017 -0.006 -0.005   -0.010  0.007 -0.004   -0.020  0.050 -0.085
 C         -0.017  0.033 -0.019    0.029 -0.058  0.033   -0.003  0.006 -0.004
 O         -0.000 -0.000  0.000    0.000  0.000 -0.001    0.000 -0.001  0.001
 H         -0.043 -0.049  0.150   -0.001 -0.002 -0.005   -0.204 -0.209  0.660
 C          0.037 -0.067  0.007    0.023 -0.043  0.001   -0.001  0.002  0.000
 H          0.188 -0.391  0.220   -0.323  0.673 -0.384    0.040 -0.071  0.037
 H         -0.290  0.604 -0.265   -0.176  0.366 -0.163    0.008 -0.018  0.010
 H          0.139  0.199  0.097    0.100  0.146  0.077   -0.004 -0.006 -0.003
 H         -0.299  0.003  0.093   -0.193  0.002  0.063    0.007 -0.001 -0.001
 TransDip   0.065 -0.025 -0.047    0.063 -0.184  0.061   -0.032  0.096 -0.153

 STANDARD THERMODYNAMIC QUANTITIES AT   298.15 K  AND     1.00 ATM

   This Molecule has  1 Imaginary Frequencies
   Zero point vibrational energy:       55.314 kcal/mol

   Atom    1 Element H  Has Mass    1.00783
   Atom    2 Element C  Has Mass   12.00000
   Atom    3 Element C  Has Mass   12.00000
   Atom    4 Element O  Has Mass   15.99491
   Atom    5 Element H  Has Mass    1.00783
   Atom    6 Element C  Has Mass   12.00000
   Atom    7 Element H  Has Mass    1.00783
   Atom    8 Element H  Has Mass    1.00783
   Atom    9 Element H  Has Mass    1.00783
   Atom   10 Element H  Has Mass    1.00783
   Molecular Mass:    58.041890 amu
   Principal axes and moments of inertia in amu*Bohr^2:
                             1           2           3
    Eigenvalues --       96.02810   267.71442   298.55506
          X              -0.20451     0.93605    -0.28633
          Y               0.40802     0.34741     0.84429
          Z               0.88977     0.05584    -0.45297
   Rotational Symmetry Number is   1
   The Molecule is an Asymmetric Top
   Translational Enthalpy:        0.889 kcal/mol
   Rotational Enthalpy:           0.889 kcal/mol
   Vibrational Enthalpy:         55.985 kcal/mol
   gas constant (RT):             0.592 kcal/mol
   Translational Entropy:        38.096  cal/mol.K
   Rotational Entropy:           23.555  cal/mol.K
   Vibrational Entropy:           3.232  cal/mol.K

   Total Enthalpy:               58.355 kcal/mol
   Total Entropy:                64.883  cal/mol.K

 ======================================================================

 STANDARD THERMODYNAMIC QUANTITIES FOR ANHARMONIC VIBRATION -- TOSH

   Zero point vibrational energy: ************ kcal/mol

   Vibrational Enthalpy:       Infinity kcal/mol
   Vibrational Entropy:             NaN  cal/mol.K

   Total Enthalpy:             Infinity kcal/mol
   Total Entropy:                   NaN  cal/mol.K

 ======================================================================

 STANDARD THERMODYNAMIC QUANTITIES FOR ANHARMONIC VIBRATION -- VPT2

   Zero point vibrational energy: ************ kcal/mol

   Vibrational Enthalpy:       Infinity kcal/mol
   Vibrational Entropy:             NaN  cal/mol.K

   Total Enthalpy:             Infinity kcal/mol
   Total Entropy:                   NaN  cal/mol.K

 ======================================================================

Archival summary:
1\1\copper\FREQ\ProcedureUnspecified\6-31G*\136\eric\SatJul921:49:342016SatJul921:49:342016\0\\#,FREQ,ProcedureUnspecified,6-31G*,\\0,1\O\C,1,1.40162\H,2,1.07943,1,113.421\C,1,1.40278,2,62.4557,3,108.871,0\H,4,1.07743,1,115.254,2,-111.315,0\H,4,1.07786,1,115.2,2,110.702,0\C,2,1.50375,1,116.54,3,137.496,0\H,7,1.08432,2,110.628,1,43.4205,0\H,7,1.08581,2,110.299,1,-76.3182,0\H,7,1.08643,2,110.542,1,164.015,0\\HF=-191.909727\\@

 Total job time:  0x1.5f72a8ed84ap+11s(wall), 0x1.6047fdb2b3461p+11s(cpu) 
 Sat Jul  9 21:49:34 2016

        *************************************************************
        *                                                           *
        *  Thank you very much for using Q-Chem.  Have a nice day.  *
        *                                                           *
        *************************************************************


0 sent ACK to 0 
now end server 0 ... 
