

     ************************************************************************
     *************** Dalton - An Electronic Structure Program ***************
     ************************************************************************

    This is output from DALTON release Dalton2019.alpha (2018)
         ( Web site: http://daltonprogram.org )

   ----------------------------------------------------------------------------

    NOTE:
     
    Dalton is an experimental code for the evaluation of molecular
    properties using (MC)SCF, DFT, CI, and CC wave functions.
    The authors accept no responsibility for the performance of
    the code or for the correctness of the results.
     
    The code (in whole or part) is provided under a licence and
    is not to be reproduced for further distribution without
    the written permission of the authors or their representatives.
     
    See the home page "http://daltonprogram.org" for further information.
     
    If results obtained with this code are published,
    the appropriate citations would be both of:
     
       K. Aidas, C. Angeli, K. L. Bak, V. Bakken, R. Bast,
       L. Boman, O. Christiansen, R. Cimiraglia, S. Coriani,
       P. Dahle, E. K. Dalskov, U. Ekstroem,
       T. Enevoldsen, J. J. Eriksen, P. Ettenhuber, B. Fernandez,
       L. Ferrighi, H. Fliegl, L. Frediani, K. Hald, A. Halkier,
       C. Haettig, H. Heiberg, T. Helgaker, A. C. Hennum,
       H. Hettema, E. Hjertenaes, S. Hoest, I.-M. Hoeyvik,
       M. F. Iozzi, B. Jansik, H. J. Aa. Jensen, D. Jonsson,
       P. Joergensen, J. Kauczor, S. Kirpekar,
       T. Kjaergaard, W. Klopper, S. Knecht, R. Kobayashi, H. Koch,
       J. Kongsted, A. Krapp, K. Kristensen, A. Ligabue,
       O. B. Lutnaes, J. I. Melo, K. V. Mikkelsen, R. H. Myhre,
       C. Neiss, C. B. Nielsen, P. Norman, J. Olsen,
       J. M. H. Olsen, A. Osted, M. J. Packer, F. Pawlowski,
       T. B. Pedersen, P. F. Provasi, S. Reine, Z. Rinkevicius,
       T. A. Ruden, K. Ruud, V. Rybkin, P. Salek, C. C. M. Samson,
       A. Sanchez de Meras, T. Saue, S. P. A. Sauer,
       B. Schimmelpfennig, K. Sneskov, A. H. Steindal,
       K. O. Sylvester-Hvid, P. R. Taylor, A. M. Teale,
       E. I. Tellgren, D. P. Tew, A. J. Thorvaldsen, L. Thoegersen,
       O. Vahtras, M. A. Watson, D. J. D. Wilson, M. Ziolkowski
       and H. Agren,
       "The Dalton quantum chemistry program system",
       WIREs Comput. Mol. Sci. 2014, 4:269–284 (doi: 10.1002/wcms.1172)
     
    and
     
       Dalton, a molecular electronic structure program,
       Release Dalton2019.alpha (2018), see http://daltonprogram.org
   ----------------------------------------------------------------------------

    Authors in alphabetical order (major contribution(s) in parenthesis):

  Kestutis Aidas,           Vilnius University,           Lithuania   (QM/MM)
  Celestino Angeli,         University of Ferrara,        Italy       (NEVPT2)
  Keld L. Bak,              UNI-C,                        Denmark     (AOSOPPA, non-adiabatic coupling, magnetic properties)
  Vebjoern Bakken,          University of Oslo,           Norway      (DALTON; geometry optimizer, symmetry detection)
  Radovan Bast,             UiT The Arctic U. of Norway,  Norway      (DALTON installation and execution frameworks)
  Pablo Baudin,             University of Valencia,       Spain       (Cholesky excitation energies)
  Linus Boman,              NTNU,                         Norway      (Cholesky decomposition and subsystems)
  Ove Christiansen,         Aarhus University,            Denmark     (CC module)
  Renzo Cimiraglia,         University of Ferrara,        Italy       (NEVPT2)
  Sonia Coriani,            Technical Univ. of Denmark,   Denmark     (CC module, MCD in RESPONS)
  Janusz Cukras,            University of Trieste,        Italy       (MChD in RESPONS)
  Paal Dahle,               University of Oslo,           Norway      (Parallelization)
  Erik K. Dalskov,          UNI-C,                        Denmark     (SOPPA)
  Thomas Enevoldsen,        Univ. of Southern Denmark,    Denmark     (SOPPA)
  Janus J. Eriksen,         Aarhus University,            Denmark     (Polarizable embedding model, TDA)
  Rasmus Faber,             University of Copenhagen,     Denmark     (Vib.avg. NMR with SOPPA, parallel AO-SOPPA)
  Tobias Fahleson,          KTH Stockholm,                Sweden      (Damped cubic response)
  Berta Fernandez,          U. of Santiago de Compostela, Spain       (doublet spin, ESR in RESPONS)
  Lara Ferrighi,            Aarhus University,            Denmark     (PCM Cubic response)
  Heike Fliegl,             University of Oslo,           Norway      (CCSD(R12))
  Luca Frediani,            UiT The Arctic U. of Norway,  Norway      (PCM)
  Bin Gao,                  UiT The Arctic U. of Norway,  Norway      (Gen1Int library)
  Christof Haettig,         Ruhr-University Bochum,       Germany     (CC module)
  Kasper Hald,              Aarhus University,            Denmark     (CC module)
  Asger Halkier,            Aarhus University,            Denmark     (CC module)
  Frederik Beyer Hansen,    University of Copenhagen,     Denmark     (Parallel AO-SOPPA)
  Erik D. Hedegaard,        Univ. of Southern Denmark,    Denmark     (Polarizable embedding model, QM/MM)
  Hanne Heiberg,            University of Oslo,           Norway      (geometry analysis, selected one-electron integrals)
  Trygve Helgaker,          University of Oslo,           Norway      (DALTON; ABACUS, ERI, DFT modules, London, and much more)
  Alf Christian Hennum,     University of Oslo,           Norway      (Parity violation)
  Hinne Hettema,            University of Auckland,       New Zealand (quadratic response in RESPONS; SIRIUS supersymmetry)
  Eirik Hjertenaes,         NTNU,                         Norway      (Cholesky decomposition)
  Pi A. B. Haase,           University of Copenhagen,     Denmark     (Triplet AO-SOPPA)
  Maria Francesca Iozzi,    University of Oslo,           Norway      (RPA)
  Christoph Jacob           TU Braunschweig               Germany     (Frozen density embedding model)
  Brano Jansik              Technical Univ. of Ostrava    Czech Rep.  (DFT cubic response)
  Hans Joergen Aa. Jensen,  Univ. of Southern Denmark,    Denmark     (DALTON; SIRIUS, RESPONS, ABACUS modules, London, and much more)
  Dan Jonsson,              UiT The Arctic U. of Norway,  Norway      (cubic response in RESPONS module)
  Poul Joergensen,          Aarhus University,            Denmark     (RESPONS, ABACUS, and CC modules)
  Maciej Kaminski,          University of Warsaw,         Poland      (CPPh in RESPONS)
  Joanna Kauczor,           Linkoeping University,        Sweden      (Complex polarization propagator (CPP) module)
  Sheela Kirpekar,          Univ. of Southern Denmark,    Denmark     (Mass-velocity & Darwin integrals)
  Wim Klopper,              KIT Karlsruhe,                Germany     (R12 code in CC, SIRIUS, and ABACUS modules)
  Stefan Knecht,            ETH Zurich,                   Switzerland (Parallel CI and MCSCF)
  Rika Kobayashi,           Australian National Univ.,    Australia   (DIIS in CC, London in MCSCF)
  Henrik Koch,              NTNU,                         Norway      (CC module, Cholesky decomposition)
  Jacob Kongsted,           Univ. of Southern Denmark,    Denmark     (Polarizable embedding model, QM/MM)
  Andrea Ligabue,           University of Modena,         Italy       (CTOCD, AOSOPPA)
  Nanna H. List             Univ. of Southern Denmark,    Denmark     (Polarizable embedding model)
  Ola B. Lutnaes,           University of Oslo,           Norway      (DFT Hessian)
  Juan I. Melo,             University of Buenos Aires,   Argentina   (LRESC, Relativistic Effects on NMR Shieldings)
  Kurt V. Mikkelsen,        University of Copenhagen,     Denmark     (MC-SCRF and QM/MM)
  Rolf H. Myhre,            NTNU,                         Norway      (Subsystems and CC3)
  Christian Neiss,          Univ. Erlangen-Nuernberg,     Germany     (CCSD(R12))
  Christian B. Nielsen,     University of Copenhagen,     Denmark     (QM/MM)
  Patrick Norman,           KTH Stockholm,                Sweden      (Cubic response and complex frequency response in RESPONS)
  Jeppe Olsen,              Aarhus University,            Denmark     (SIRIUS CI/density modules)
  Jogvan Magnus H. Olsen,   Univ. of Southern Denmark,    Denmark     (Polarizable embedding model, QM/MM)
  Anders Osted,             Copenhagen University,        Denmark     (QM/MM)
  Martin J. Packer,         University of Sheffield,      UK          (SOPPA)
  Filip Pawlowski,          Kazimierz Wielki University,  Poland      (CC3)
  Morten N. Pedersen,       Univ. of Southern Denmark,    Denmark     (Polarizable embedding model)
  Thomas B. Pedersen,       University of Oslo,           Norway      (Cholesky decomposition)
  Patricio F. Provasi,      University of Northeastern,   Argentina   (Analysis of coupling constants in localized orbitals)
  Zilvinas Rinkevicius,     KTH Stockholm,                Sweden      (open-shell DFT, ESR)
  Elias Rudberg,            KTH Stockholm,                Sweden      (DFT grid and basis info)
  Torgeir A. Ruden,         University of Oslo,           Norway      (Numerical derivatives in ABACUS)
  Kenneth Ruud,             UiT The Arctic U. of Norway,  Norway      (DALTON; ABACUS magnetic properties and much more)
  Pawel Salek,              KTH Stockholm,                Sweden      (DALTON; DFT code)
  Claire C. M. Samson       University of Karlsruhe       Germany     (Boys localization, r12 integrals in ERI)
  Alfredo Sanchez de Meras, University of Valencia,       Spain       (CC module, Cholesky decomposition)
  Trond Saue,               Paul Sabatier University,     France      (direct Fock matrix construction)
  Stephan P. A. Sauer,      University of Copenhagen,     Denmark     (SOPPA(CCSD), SOPPA prop., AOSOPPA, vibrational g-factors)
  Andre S. P. Gomes,        CNRS/Universite de Lille,     France      (Frozen density embedding model)
  Bernd Schimmelpfennig,    Forschungszentrum Karlsruhe,  Germany     (AMFI module)
  Kristian Sneskov,         Aarhus University,            Denmark     (Polarizable embedding model, QM/MM)
  Arnfinn H. Steindal,      UiT The Arctic U. of Norway,  Norway      (parallel QM/MM, Polarizable embedding model)
  Casper Steinmann,         Univ. of Southern Denmark,    Denmark     (QFIT, Polarizable embedding model)
  K. O. Sylvester-Hvid,     University of Copenhagen,     Denmark     (MC-SCRF)
  Peter R. Taylor,          VLSCI/Univ. of Melbourne,     Australia   (Symmetry handling ABACUS, integral transformation)
  Andrew M. Teale,          University of Nottingham,     England     (DFT-AC, DFT-D)
  David P. Tew,             University of Bristol,        England     (CCSD(R12))
  Olav Vahtras,             KTH Stockholm,                Sweden      (triplet response, spin-orbit, ESR, TDDFT, open-shell DFT)
  Lucas Visscher,           Vrije Universiteit Amsterdam, Netherlands (Frozen density embedding model)
  David J. Wilson,          La Trobe University,          Australia   (DFT Hessian and DFT magnetizabilities)
  Hans Agren,               KTH Stockholm,                Sweden      (SIRIUS module, RESPONS, MC-SCRF solvation model)
 --------------------------------------------------------------------------------

     Date and time (Linux)  : Mon Dec 10 23:05:16 2018
     Host name              : osmium                                  

 * Work memory size             :    64000000 =  488.28 megabytes.

 * Directories for basis set searches:
   1) /home/eric/Dropbox/research/cclib/calculations/dispersion/DALTON-2019.alpha
   2) /home/eric/data/opt/apps/dalton/git-gnu-openblas-omp/dalton/basis


Compilation information
-----------------------

 Who compiled             | eric
 Host                     | osmium
 System                   | Linux-4.19.4-arch1-1-ARCH
 CMake generator          | Unix Makefiles
 Processor                | x86_64
 64-bit integers          | OFF
 MPI                      | OFF
 Fortran compiler         | /usr/bin/f95
 Fortran compiler version | GNU Fortran (GCC) 8.2.1 20181127
 Fortran flags            |  -fopenmp -DVAR_GFORTRAN -ffloat-store -fcray-poin
                          | ter -std=legacy -m64 -fopenmp -DVAR_GFORTRAN -fflo
                          | at-store -fcray-pointer -std=legacy -m64 -O3 -ffas
                          | t-math -funroll-loops -ftree-vectorize
 C compiler               | /usr/bin/cc
 C compiler version       | cc (GCC) 8.2.1 20181127
 C flags                  |  -fopenmp -std=c99 -DRESTRICT=restrict -DFUNDERSCO
                          | RE=1 -DHAVE_NO_LSEEK64 -ffloat-store -Wall -m64 -f
                          | openmp -std=c99 -DRESTRICT=restrict -DFUNDERSCORE=
                          | 1 -DHAVE_NO_LSEEK64 -ffloat-store -Wall -m64 -O3 -
                          | ffast-math -funroll-loops -ftree-vectorize -Wno-un
                          | used
 C++ compiler             | /usr/bin/c++
 C++ compiler version     | c++ (GCC) 8.2.1 20181127
 C++ flags                |  -fopenmp -g -Wall -fno-rtti -fno-exceptions -m64 
                          | -march=native -fopenmp -g -Wall -fno-rtti -fno-exc
                          | eptions -m64 -march=native -O3 -ffast-math -funrol
                          | l-loops -ftree-vectorize -Wno-unused
 BLAS                     | /lib64/libopenblas.so
 LAPACK                   | /lib64/liblapack.so
 Static linking           | OFF
 Last Git revision        | 25947a3d842ee2ebb42bff87a4dd64adbbd3ec5b
 Git branch               | master
 Configuration time       | 2018-12-09 15:28:33.044522


   Content of the .dal input file
 ----------------------------------

BASIS
STO-3G
divinylbenzene
Generated by Open Babel
AtomTypes=6 Angstrom
Charge=6.0 Atoms=6
C            -1.4152533224    0.2302217854    0.0000000000
C             1.4152533224   -0.2302217854    0.0000000000
C            -0.4951331558    1.3144608674    0.0000000000
C             0.4951331558   -1.3144608674    0.0000000000
C             0.8894090436    1.0909493743    0.0000000000
C            -0.8894090436   -1.0909493743    0.0000000000
Charge=1.0 Atoms=4
H            -0.8795511985    2.3437343748    0.0000000000
H             0.8795511985   -2.3437343748    0.0000000000
H             1.5779041557    1.9450061275    0.0000000000
H            -1.5779041557   -1.9450061275    0.0000000000
Charge=6.0 Atoms=2
C             2.8845844962   -0.5210893778    0.0000000000
C            -2.8845844962    0.5210893778    0.0000000000
Charge=1.0 Atoms=2
H             3.1403356810   -1.5919605685    0.0000000000
H            -3.1403356810    1.5919605685    0.0000000000
Charge=6.0 Atoms=2
C             3.8800428103    0.3822535424    0.0000000000
C            -3.8800428103   -0.3822535424    0.0000000000
Charge=1.0 Atoms=4
H             3.6946765858    1.4624389570    0.0000000000
H            -3.6946765858   -1.4624389570    0.0000000000
H             4.9316453546    0.0711049543    0.0000000000
H            -4.9316453546   -0.0711049543    0.0000000000

**DALTON
.RUN WAVE FUNCTIONS
.RUN PROPERTIES
*MOLBAS
.PRINT
  2
**WAVE FUNCTIONS
.DFT
BP86
*SCF INPUT
.THRESH
1.0D-08
*DFT INPUT
.ULTRAF
.DFTD3
**END OF


       *******************************************************************
       *********** Output from DALTON general input processing ***********
       *******************************************************************

 --------------------------------------------------------------------------------
   Overall default print level:    0
   Print level for DALTON.STAT:    1

    HERMIT 1- and 2-electron integral sections will be executed
    "Old" integral transformation used (limited to max 255 basis functions)
    Wave function sections will be executed (SIRIUS module)
    Static molecular property section will be executed (ABACUS module)
 --------------------------------------------------------------------------------


 Changes of defaults for *MOLBAS
 -------------------------------

 Print level in molecule setup (READIN):    2

 * Nuclear model: Point charge



   ****************************************************************************
   *************** Output of molecule and basis set information ***************
   ****************************************************************************


 Basis set 1 is  "STO-3G" from the basis set library.

    The two title cards from your ".mol" input:
    ------------------------------------------------------------------------
 1: divinylbenzene                                                          
 2: Generated by Open Babel                                                 
    ------------------------------------------------------------------------

  Coordinates are entered in Angstrom and converted to atomic units.
          - Conversion factor : 1 bohr = 0.52917721 A

  Atomic type no.    1
  --------------------
  Nuclear charge:   6.00000
  Number of symmetry independent centers:    6
  Number of basis sets to read;    2
  Basis set file used for this atomic type with Z =   6 :
  Trying file: "/home/eric/Dropbox/research/cclib/calculations/dispersion/DALTON-2019.alpha/STO-3G"
  Trying file: "/home/eric/data/opt/apps/dalton/git-gnu-openblas-omp/dalton/basis/STO-3G"
     "/home/eric/data/opt/apps/dalton/git-gnu-openblas-omp/dalton/basis/STO-3G"
  Basis set file used for this atomic type with Z =   6 :
     "/home/eric/data/opt/apps/dalton/git-gnu-openblas-omp/dalton/basis/ano-4"

  Atomic type no.    2
  --------------------
  Nuclear charge:   1.00000
  Number of symmetry independent centers:    4
  Number of basis sets to read;    2
  Basis set file used for this atomic type with Z =   1 :
  Trying file: "/home/eric/Dropbox/research/cclib/calculations/dispersion/DALTON-2019.alpha/STO-3G"
  Trying file: "/home/eric/data/opt/apps/dalton/git-gnu-openblas-omp/dalton/basis/STO-3G"
     "/home/eric/data/opt/apps/dalton/git-gnu-openblas-omp/dalton/basis/STO-3G"
  Basis set file used for this atomic type with Z =   1 :
     "/home/eric/data/opt/apps/dalton/git-gnu-openblas-omp/dalton/basis/ano-4"

  Atomic type no.    3
  --------------------
  Nuclear charge:   6.00000
  Number of symmetry independent centers:    2
  Number of basis sets to read;    2
  Basis set file used for this atomic type with Z =   6 :
  Trying file: "/home/eric/Dropbox/research/cclib/calculations/dispersion/DALTON-2019.alpha/STO-3G"
  Trying file: "/home/eric/data/opt/apps/dalton/git-gnu-openblas-omp/dalton/basis/STO-3G"
     "/home/eric/data/opt/apps/dalton/git-gnu-openblas-omp/dalton/basis/STO-3G"
  Basis set file used for this atomic type with Z =   6 :
     "/home/eric/data/opt/apps/dalton/git-gnu-openblas-omp/dalton/basis/ano-4"

  Atomic type no.    4
  --------------------
  Nuclear charge:   1.00000
  Number of symmetry independent centers:    2
  Number of basis sets to read;    2
  Basis set file used for this atomic type with Z =   1 :
  Trying file: "/home/eric/Dropbox/research/cclib/calculations/dispersion/DALTON-2019.alpha/STO-3G"
  Trying file: "/home/eric/data/opt/apps/dalton/git-gnu-openblas-omp/dalton/basis/STO-3G"
     "/home/eric/data/opt/apps/dalton/git-gnu-openblas-omp/dalton/basis/STO-3G"
  Basis set file used for this atomic type with Z =   1 :
     "/home/eric/data/opt/apps/dalton/git-gnu-openblas-omp/dalton/basis/ano-4"

  Atomic type no.    5
  --------------------
  Nuclear charge:   6.00000
  Number of symmetry independent centers:    2
  Number of basis sets to read;    2
  Basis set file used for this atomic type with Z =   6 :
  Trying file: "/home/eric/Dropbox/research/cclib/calculations/dispersion/DALTON-2019.alpha/STO-3G"
  Trying file: "/home/eric/data/opt/apps/dalton/git-gnu-openblas-omp/dalton/basis/STO-3G"
     "/home/eric/data/opt/apps/dalton/git-gnu-openblas-omp/dalton/basis/STO-3G"
  Basis set file used for this atomic type with Z =   6 :
     "/home/eric/data/opt/apps/dalton/git-gnu-openblas-omp/dalton/basis/ano-4"

  Atomic type no.    6
  --------------------
  Nuclear charge:   1.00000
  Number of symmetry independent centers:    4
  Number of basis sets to read;    2
  Basis set file used for this atomic type with Z =   1 :
  Trying file: "/home/eric/Dropbox/research/cclib/calculations/dispersion/DALTON-2019.alpha/STO-3G"
  Trying file: "/home/eric/data/opt/apps/dalton/git-gnu-openblas-omp/dalton/basis/STO-3G"
     "/home/eric/data/opt/apps/dalton/git-gnu-openblas-omp/dalton/basis/STO-3G"
  Basis set file used for this atomic type with Z =   1 :
     "/home/eric/data/opt/apps/dalton/git-gnu-openblas-omp/dalton/basis/ano-4"


                      SYMADD: Requested addition of symmetry
                      --------------------------------------

 Symmetry test threshold:  5.00E-06

@   The molecule is centered at center of mass and rotated
@   so principal axes of inertia are along coordinate axes.

 Symmetry class found: C(2h)          

 Symmetry Independent Centres             
 ----------------------------
       6 :      2.65435173     0.00000000     0.00000000  Isotope  1
       6 :     -1.33679823     2.29957212     0.00000000  Isotope  1
       6 :      1.34987787     2.34941252     0.00000000  Isotope  1
       6 :      2.84302643     4.75405952     0.00000000  Isotope  1
       6 :      1.90863933     7.11620100     0.00000000  Isotope  1
       1 :      4.73061964    -0.00581865     0.00000000  Isotope  1
       1 :     -2.38850486     4.08604068     0.00000000  Isotope  1
       1 :      4.90714746     4.49299343     0.00000000  Isotope  1
       1 :     -0.12506744     7.50794221     0.00000000  Isotope  1
       1 :      3.15939030     8.76861592     0.00000000  Isotope  1

 The following symmetry elements were found:   Z  XY    


                         SYMGRP: Point group information
                         -------------------------------

@    Full point group is: C(2h)          
@    Represented as:      C2h

@  * The irrep name for each symmetry:    1: Ag     2: Au     3: Bu     4: Bg 

   * The point group was generated by:

      Reflection in the xy-plane
      Rotation about the z-axis

   * Group multiplication table

        |  E   C2z   i   Oxy
   -----+--------------------
     E  |  E   C2z   i   Oxy
    C2z | C2z   E   Oxy   i 
     i  |  i   Oxy   E   C2z
    Oxy | Oxy   i   C2z   E 

   * Character table

        |  E   C2z   i   Oxy
   -----+--------------------
    Ag  |   1    1    1    1
    Au  |   1    1   -1   -1
    Bu  |   1   -1   -1    1
    Bg  |   1   -1    1   -1

   * Direct product table

        | Ag   Au   Bu   Bg 
   -----+--------------------
    Ag  | Ag   Au   Bu   Bg 
    Au  | Au   Ag   Bg   Bu 
    Bu  | Bu   Bg   Ag   Au 
    Bg  | Bg   Bu   Au   Ag 


                                 Isotopic Masses
                                 ---------------

                           C   _1     12.000000
                           C   _2     12.000000
                           C   _1     12.000000
                           C   _2     12.000000
                           C   _1     12.000000
                           C   _2     12.000000
                           H   _1      1.007825
                           H   _2      1.007825
                           H   _1      1.007825
                           H   _2      1.007825
                           C   _1     12.000000
                           C   _2     12.000000
                           H   _1      1.007825
                           H   _2      1.007825
                           C   _1     12.000000
                           C   _2     12.000000
                           H   _1      1.007825
                           H   _2      1.007825
                           H   _1      1.007825
                           H   _2      1.007825

                       Total mass:   130.078250 amu
                       Natural abundance:  89.395 %

 Center-of-mass coordinates (a.u.):    0.000000    0.000000    0.000000


  Atoms and basis sets
  --------------------

  Number of atom types :    6
  Total number of atoms:   20

  Basis set used is "STO-3G" from the basis set library.

  label    atoms   charge   prim   cont     basis
  ----------------------------------------------------------------------
  C           6    6.0000    15     5      [6s3p|2s1p]                                        
  H           4    1.0000     3     1      [3s|1s]                                            
  C           2    6.0000    15     5      [6s3p|2s1p]                                        
  H           2    1.0000     3     1      [3s|1s]                                            
  C           2    6.0000    15     5      [6s3p|2s1p]                                        
  H           4    1.0000     3     1      [3s|1s]                                            
  ----------------------------------------------------------------------
  total:     20   70.0000   180    60
  ----------------------------------------------------------------------

  Threshold for neglecting AO integrals:  1.00D-12


  Cartesian Coordinates (a.u.)
  ----------------------------

  Total number of coordinates:   60
  C   / 1 :     1  x   1.3498778652    2  y   2.3494125195    3  z   0.0000000000
  C   / 2 :     4  x  -1.3498778652    5  y  -2.3494125195    6  z   0.0000000000
  C   / 1 :     7  x   2.6543517307    8  y   0.0000000000    9  z   0.0000000000
  C   / 2 :    10  x  -2.6543517307   11  y  -0.0000000000   12  z   0.0000000000
  C   / 1 :    13  x  -1.3367982295   14  y   2.2995721175   15  z   0.0000000000
  C   / 2 :    16  x   1.3367982295   17  y  -2.2995721175   18  z   0.0000000000
  H   / 1 :    19  x   4.7306196354   20  y  -0.0058186464   21  z   0.0000000000
  H   / 2 :    22  x  -4.7306196354   23  y   0.0058186464   24  z   0.0000000000
  H   / 1 :    25  x  -2.3885048563   26  y   4.0860406779   27  z   0.0000000000
  H   / 2 :    28  x   2.3885048563   29  y  -4.0860406779   30  z   0.0000000000
  C   / 1 :    31  x   2.8430264287   32  y   4.7540595214   33  z   0.0000000000
  C   / 2 :    34  x  -2.8430264287   35  y  -4.7540595214   36  z   0.0000000000
  H   / 1 :    37  x   4.9071474598   38  y   4.4929934306   39  z   0.0000000000
  H   / 2 :    40  x  -4.9071474598   41  y  -4.4929934306   42  z   0.0000000000
  C   / 1 :    43  x   1.9086393269   44  y   7.1162009972   45  z   0.0000000000
  C   / 2 :    46  x  -1.9086393269   47  y  -7.1162009972   48  z   0.0000000000
  H   / 1 :    49  x  -0.1250674415   50  y   7.5079422078   51  z   0.0000000000
  H   / 2 :    52  x   0.1250674415   53  y  -7.5079422078   54  z   0.0000000000
  H   / 1 :    55  x   3.1593903009   56  y   8.7686159229   57  z   0.0000000000
  H   / 2 :    58  x  -3.1593903009   59  y  -8.7686159229   60  z   0.0000000000


  Symmetry Coordinates
  --------------------

  Number of coordinates in each symmetry:    20   10   20   10

  Symmetry  Ag  ( 1)

    1   C     x    [  1  -    4 ]/2
    2   C     y    [  2  -    5 ]/2
    3   C     x    [  7  -   10 ]/2
    4   C     y    [  8  -   11 ]/2
    5   C     x    [ 13  -   16 ]/2
    6   C     y    [ 14  -   17 ]/2
    7   H     x    [ 19  -   22 ]/2
    8   H     y    [ 20  -   23 ]/2
    9   H     x    [ 25  -   28 ]/2
   10   H     y    [ 26  -   29 ]/2
   11   C     x    [ 31  -   34 ]/2
   12   C     y    [ 32  -   35 ]/2
   13   H     x    [ 37  -   40 ]/2
   14   H     y    [ 38  -   41 ]/2
   15   C     x    [ 43  -   46 ]/2
   16   C     y    [ 44  -   47 ]/2
   17   H     x    [ 49  -   52 ]/2
   18   H     y    [ 50  -   53 ]/2
   19   H     x    [ 55  -   58 ]/2
   20   H     y    [ 56  -   59 ]/2

  Symmetry  Au  ( 2)

   21   C     z    [  3  +    6 ]/2
   22   C     z    [  9  +   12 ]/2
   23   C     z    [ 15  +   18 ]/2
   24   H     z    [ 21  +   24 ]/2
   25   H     z    [ 27  +   30 ]/2
   26   C     z    [ 33  +   36 ]/2
   27   H     z    [ 39  +   42 ]/2
   28   C     z    [ 45  +   48 ]/2
   29   H     z    [ 51  +   54 ]/2
   30   H     z    [ 57  +   60 ]/2

  Symmetry  Bu  ( 3)

   31   C     x    [  1  +    4 ]/2
   32   C     y    [  2  +    5 ]/2
   33   C     x    [  7  +   10 ]/2
   34   C     y    [  8  +   11 ]/2
   35   C     x    [ 13  +   16 ]/2
   36   C     y    [ 14  +   17 ]/2
   37   H     x    [ 19  +   22 ]/2
   38   H     y    [ 20  +   23 ]/2
   39   H     x    [ 25  +   28 ]/2
   40   H     y    [ 26  +   29 ]/2
   41   C     x    [ 31  +   34 ]/2
   42   C     y    [ 32  +   35 ]/2
   43   H     x    [ 37  +   40 ]/2
   44   H     y    [ 38  +   41 ]/2
   45   C     x    [ 43  +   46 ]/2
   46   C     y    [ 44  +   47 ]/2
   47   H     x    [ 49  +   52 ]/2
   48   H     y    [ 50  +   53 ]/2
   49   H     x    [ 55  +   58 ]/2
   50   H     y    [ 56  +   59 ]/2

  Symmetry  Bg  ( 4)

   51   C     z    [  3  -    6 ]/2
   52   C     z    [  9  -   12 ]/2
   53   C     z    [ 15  -   18 ]/2
   54   H     z    [ 21  -   24 ]/2
   55   H     z    [ 27  -   30 ]/2
   56   C     z    [ 33  -   36 ]/2
   57   H     z    [ 39  -   42 ]/2
   58   C     z    [ 45  -   48 ]/2
   59   H     z    [ 51  -   54 ]/2
   60   H     z    [ 57  -   60 ]/2

  Max    interatomic separation is    9.8643 Angstrom (   18.6409 Bohr)
  between atoms   20 and   19, "H   _2" and "H   _1".

  Min HX interatomic separation is    1.0960 Angstrom (    2.0711 Bohr)

  Min YX interatomic separation is    1.3442 Angstrom (    2.5402 Bohr)


  Bond distances (Angstrom):
  --------------------------

                  atom 1     atom 2       distance
                  ------     ------       --------
  bond distance:  C   _1     C   _1       1.422039
  bond distance:  C   _2     C   _2       1.422039
  bond distance:  C   _1     C   _1       1.421972
  bond distance:  C   _1     C   _2       1.402467
  bond distance:  C   _2     C   _2       1.421972
  bond distance:  C   _2     C   _1       1.402467
  bond distance:  H   _1     C   _1       1.098718
  bond distance:  H   _2     C   _2       1.098718
  bond distance:  H   _1     C   _1       1.097013
  bond distance:  H   _2     C   _2       1.097013
  bond distance:  C   _1     C   _1       1.497844
  bond distance:  C   _2     C   _2       1.497844
  bond distance:  H   _1     C   _1       1.100988
  bond distance:  H   _2     C   _2       1.100988
  bond distance:  C   _1     C   _1       1.344234
  bond distance:  C   _2     C   _2       1.344234
  bond distance:  H   _1     C   _1       1.095975
  bond distance:  H   _2     C   _2       1.095975
  bond distance:  H   _1     C   _1       1.096668
  bond distance:  H   _2     C   _2       1.096668


  Bond angles (degrees):
  ----------------------

                  atom 1     atom 2     atom 3         angle
                  ------     ------     ------         -----
  bond angle:     C   _1     C   _1     C   _1       117.978
  bond angle:     C   _1     C   _1     C   _1       119.122
  bond angle:     C   _1     C   _1     C   _1       122.901
  bond angle:     C   _2     C   _2     C   _2       117.978
  bond angle:     C   _2     C   _2     C   _2       119.122
  bond angle:     C   _2     C   _2     C   _2       122.901
  bond angle:     C   _1     C   _1     C   _2       121.149
  bond angle:     C   _1     C   _1     H   _1       119.201
  bond angle:     C   _2     C   _1     H   _1       119.650
  bond angle:     C   _2     C   _2     C   _1       121.149
  bond angle:     C   _2     C   _2     H   _2       119.201
  bond angle:     C   _1     C   _2     H   _2       119.650
  bond angle:     C   _1     C   _1     C   _2       120.874
  bond angle:     C   _1     C   _1     H   _1       119.423
  bond angle:     C   _2     C   _1     H   _1       119.704
  bond angle:     C   _2     C   _2     C   _1       120.874
  bond angle:     C   _2     C   _2     H   _2       119.423
  bond angle:     C   _1     C   _2     H   _2       119.704
  bond angle:     C   _1     C   _1     H   _1       114.630
  bond angle:     C   _1     C   _1     C   _1       126.580
  bond angle:     H   _1     C   _1     C   _1       118.791
  bond angle:     C   _2     C   _2     H   _2       114.630
  bond angle:     C   _2     C   _2     C   _2       126.580
  bond angle:     H   _2     C   _2     C   _2       118.791
  bond angle:     C   _1     C   _1     H   _1       122.485
  bond angle:     C   _1     C   _1     H   _1       121.295
  bond angle:     H   _1     C   _1     H   _1       116.220
  bond angle:     C   _2     C   _2     H   _2       122.485
  bond angle:     C   _2     C   _2     H   _2       121.295
  bond angle:     H   _2     C   _2     H   _2       116.220




 Principal moments of inertia (u*A**2) and principal axes
 --------------------------------------------------------

   IA     109.440483          0.348144    0.937441    0.000000
   IB     736.959951          0.937441   -0.348144    0.000000
   IC     846.400433          0.000000    0.000000    1.000000


 Rotational constants
 --------------------

@    The molecule is planar.

               A                   B                   C

           4617.8434            685.7618            597.0921 MHz
            0.154035            0.022875            0.019917 cm-1


@  Nuclear repulsion energy :  445.936979976608 Hartree


  Orbital exponents and contraction coefficients
  ----------------------------------------------


  C   #1 1s      1       71.616837      0.1543    0.0000
   seg. cont.    2       13.045096      0.5353    0.0000
                 3        3.530512      0.4446    0.0000
                 4        2.941249      0.0000   -0.1000
                 5        0.683483      0.0000    0.3995
                 6        0.222290      0.0000    0.7001

  C   #2 1s      7       71.616837      0.1543    0.0000
   seg. cont.    8       13.045096      0.5353    0.0000
                 9        3.530512      0.4446    0.0000
                10        2.941249      0.0000   -0.1000
                11        0.683483      0.0000    0.3995
                12        0.222290      0.0000    0.7001

  C   #1 2px    13        2.941249      0.1559
   seg. cont.   14        0.683483      0.6077
                15        0.222290      0.3920

  C   #2 2px    16        2.941249      0.1559
   seg. cont.   17        0.683483      0.6077
                18        0.222290      0.3920

  C   #1 2py    19        2.941249      0.1559
   seg. cont.   20        0.683483      0.6077
                21        0.222290      0.3920

  C   #2 2py    22        2.941249      0.1559
   seg. cont.   23        0.683483      0.6077
                24        0.222290      0.3920

  C   #1 2pz    25        2.941249      0.1559
   seg. cont.   26        0.683483      0.6077
                27        0.222290      0.3920

  C   #2 2pz    28        2.941249      0.1559
   seg. cont.   29        0.683483      0.6077
                30        0.222290      0.3920

  C   #1 1s     31       71.616837      0.1543    0.0000
   seg. cont.   32       13.045096      0.5353    0.0000
                33        3.530512      0.4446    0.0000
                34        2.941249      0.0000   -0.1000
                35        0.683483      0.0000    0.3995
                36        0.222290      0.0000    0.7001

  C   #2 1s     37       71.616837      0.1543    0.0000
   seg. cont.   38       13.045096      0.5353    0.0000
                39        3.530512      0.4446    0.0000
                40        2.941249      0.0000   -0.1000
                41        0.683483      0.0000    0.3995
                42        0.222290      0.0000    0.7001

  C   #1 2px    43        2.941249      0.1559
   seg. cont.   44        0.683483      0.6077
                45        0.222290      0.3920

  C   #2 2px    46        2.941249      0.1559
   seg. cont.   47        0.683483      0.6077
                48        0.222290      0.3920

  C   #1 2py    49        2.941249      0.1559
   seg. cont.   50        0.683483      0.6077
                51        0.222290      0.3920

  C   #2 2py    52        2.941249      0.1559
   seg. cont.   53        0.683483      0.6077
                54        0.222290      0.3920

  C   #1 2pz    55        2.941249      0.1559
   seg. cont.   56        0.683483      0.6077
                57        0.222290      0.3920

  C   #2 2pz    58        2.941249      0.1559
   seg. cont.   59        0.683483      0.6077
                60        0.222290      0.3920

  C   #1 1s     61       71.616837      0.1543    0.0000
   seg. cont.   62       13.045096      0.5353    0.0000
                63        3.530512      0.4446    0.0000
                64        2.941249      0.0000   -0.1000
                65        0.683483      0.0000    0.3995
                66        0.222290      0.0000    0.7001

  C   #2 1s     67       71.616837      0.1543    0.0000
   seg. cont.   68       13.045096      0.5353    0.0000
                69        3.530512      0.4446    0.0000
                70        2.941249      0.0000   -0.1000
                71        0.683483      0.0000    0.3995
                72        0.222290      0.0000    0.7001

  C   #1 2px    73        2.941249      0.1559
   seg. cont.   74        0.683483      0.6077
                75        0.222290      0.3920

  C   #2 2px    76        2.941249      0.1559
   seg. cont.   77        0.683483      0.6077
                78        0.222290      0.3920

  C   #1 2py    79        2.941249      0.1559
   seg. cont.   80        0.683483      0.6077
                81        0.222290      0.3920

  C   #2 2py    82        2.941249      0.1559
   seg. cont.   83        0.683483      0.6077
                84        0.222290      0.3920

  C   #1 2pz    85        2.941249      0.1559
   seg. cont.   86        0.683483      0.6077
                87        0.222290      0.3920

  C   #2 2pz    88        2.941249      0.1559
   seg. cont.   89        0.683483      0.6077
                90        0.222290      0.3920

  H   #1 1s     91        3.425251      0.1543
   seg. cont.   92        0.623914      0.5353
                93        0.168855      0.4446

  H   #2 1s     94        3.425251      0.1543
   seg. cont.   95        0.623914      0.5353
                96        0.168855      0.4446

  H   #1 1s     97        3.425251      0.1543
   seg. cont.   98        0.623914      0.5353
                99        0.168855      0.4446

  H   #2 1s    100        3.425251      0.1543
   seg. cont.  101        0.623914      0.5353
               102        0.168855      0.4446

  C   #1 1s    103       71.616837      0.1543    0.0000
   seg. cont.  104       13.045096      0.5353    0.0000
               105        3.530512      0.4446    0.0000
               106        2.941249      0.0000   -0.1000
               107        0.683483      0.0000    0.3995
               108        0.222290      0.0000    0.7001

  C   #2 1s    109       71.616837      0.1543    0.0000
   seg. cont.  110       13.045096      0.5353    0.0000
               111        3.530512      0.4446    0.0000
               112        2.941249      0.0000   -0.1000
               113        0.683483      0.0000    0.3995
               114        0.222290      0.0000    0.7001

  C   #1 2px   115        2.941249      0.1559
   seg. cont.  116        0.683483      0.6077
               117        0.222290      0.3920

  C   #2 2px   118        2.941249      0.1559
   seg. cont.  119        0.683483      0.6077
               120        0.222290      0.3920

  C   #1 2py   121        2.941249      0.1559
   seg. cont.  122        0.683483      0.6077
               123        0.222290      0.3920

  C   #2 2py   124        2.941249      0.1559
   seg. cont.  125        0.683483      0.6077
               126        0.222290      0.3920

  C   #1 2pz   127        2.941249      0.1559
   seg. cont.  128        0.683483      0.6077
               129        0.222290      0.3920

  C   #2 2pz   130        2.941249      0.1559
   seg. cont.  131        0.683483      0.6077
               132        0.222290      0.3920

  H   #1 1s    133        3.425251      0.1543
   seg. cont.  134        0.623914      0.5353
               135        0.168855      0.4446

  H   #2 1s    136        3.425251      0.1543
   seg. cont.  137        0.623914      0.5353
               138        0.168855      0.4446

  C   #1 1s    139       71.616837      0.1543    0.0000
   seg. cont.  140       13.045096      0.5353    0.0000
               141        3.530512      0.4446    0.0000
               142        2.941249      0.0000   -0.1000
               143        0.683483      0.0000    0.3995
               144        0.222290      0.0000    0.7001

  C   #2 1s    145       71.616837      0.1543    0.0000
   seg. cont.  146       13.045096      0.5353    0.0000
               147        3.530512      0.4446    0.0000
               148        2.941249      0.0000   -0.1000
               149        0.683483      0.0000    0.3995
               150        0.222290      0.0000    0.7001

  C   #1 2px   151        2.941249      0.1559
   seg. cont.  152        0.683483      0.6077
               153        0.222290      0.3920

  C   #2 2px   154        2.941249      0.1559
   seg. cont.  155        0.683483      0.6077
               156        0.222290      0.3920

  C   #1 2py   157        2.941249      0.1559
   seg. cont.  158        0.683483      0.6077
               159        0.222290      0.3920

  C   #2 2py   160        2.941249      0.1559
   seg. cont.  161        0.683483      0.6077
               162        0.222290      0.3920

  C   #1 2pz   163        2.941249      0.1559
   seg. cont.  164        0.683483      0.6077
               165        0.222290      0.3920

  C   #2 2pz   166        2.941249      0.1559
   seg. cont.  167        0.683483      0.6077
               168        0.222290      0.3920

  H   #1 1s    169        3.425251      0.1543
   seg. cont.  170        0.623914      0.5353
               171        0.168855      0.4446

  H   #2 1s    172        3.425251      0.1543
   seg. cont.  173        0.623914      0.5353
               174        0.168855      0.4446

  H   #1 1s    175        3.425251      0.1543
   seg. cont.  176        0.623914      0.5353
               177        0.168855      0.4446

  H   #2 1s    178        3.425251      0.1543
   seg. cont.  179        0.623914      0.5353
               180        0.168855      0.4446


  Contracted Orbitals
  -------------------

    1  C   #1  1s      1    2    3
    2  C   #2  1s      7    8    9
    3  C   #1  1s      4    5    6
    4  C   #2  1s     10   11   12
    5  C   #1  2px    13   14   15
    6  C   #2  2px    16   17   18
    7  C   #1  2py    19   20   21
    8  C   #2  2py    22   23   24
    9  C   #1  2pz    25   26   27
   10  C   #2  2pz    28   29   30
   11  C   #1  1s     31   32   33
   12  C   #2  1s     37   38   39
   13  C   #1  1s     34   35   36
   14  C   #2  1s     40   41   42
   15  C   #1  2px    43   44   45
   16  C   #2  2px    46   47   48
   17  C   #1  2py    49   50   51
   18  C   #2  2py    52   53   54
   19  C   #1  2pz    55   56   57
   20  C   #2  2pz    58   59   60
   21  C   #1  1s     61   62   63
   22  C   #2  1s     67   68   69
   23  C   #1  1s     64   65   66
   24  C   #2  1s     70   71   72
   25  C   #1  2px    73   74   75
   26  C   #2  2px    76   77   78
   27  C   #1  2py    79   80   81
   28  C   #2  2py    82   83   84
   29  C   #1  2pz    85   86   87
   30  C   #2  2pz    88   89   90
   31  H   #1  1s     91   92   93
   32  H   #2  1s     94   95   96
   33  H   #1  1s     97   98   99
   34  H   #2  1s    100  101  102
   35  C   #1  1s    103  104  105
   36  C   #2  1s    109  110  111
   37  C   #1  1s    106  107  108
   38  C   #2  1s    112  113  114
   39  C   #1  2px   115  116  117
   40  C   #2  2px   118  119  120
   41  C   #1  2py   121  122  123
   42  C   #2  2py   124  125  126
   43  C   #1  2pz   127  128  129
   44  C   #2  2pz   130  131  132
   45  H   #1  1s    133  134  135
   46  H   #2  1s    136  137  138
   47  C   #1  1s    139  140  141
   48  C   #2  1s    145  146  147
   49  C   #1  1s    142  143  144
   50  C   #2  1s    148  149  150
   51  C   #1  2px   151  152  153
   52  C   #2  2px   154  155  156
   53  C   #1  2py   157  158  159
   54  C   #2  2py   160  161  162
   55  C   #1  2pz   163  164  165
   56  C   #2  2pz   166  167  168
   57  H   #1  1s    169  170  171
   58  H   #2  1s    172  173  174
   59  H   #1  1s    175  176  177
   60  H   #2  1s    178  179  180




  Symmetry Orbitals
  -----------------

  Number of orbitals in each symmetry:          25    5   25    5


  Symmetry  Ag ( 1)

    1     C        1s         1 +    2
    2     C        1s         3 +    4
    3     C        2px        5 -    6
    4     C        2py        7 -    8
    5     C        1s        11 +   12
    6     C        1s        13 +   14
    7     C        2px       15 -   16
    8     C        2py       17 -   18
    9     C        1s        21 +   22
   10     C        1s        23 +   24
   11     C        2px       25 -   26
   12     C        2py       27 -   28
   13     H        1s        31 +   32
   14     H        1s        33 +   34
   15     C        1s        35 +   36
   16     C        1s        37 +   38
   17     C        2px       39 -   40
   18     C        2py       41 -   42
   19     H        1s        45 +   46
   20     C        1s        47 +   48
   21     C        1s        49 +   50
   22     C        2px       51 -   52
   23     C        2py       53 -   54
   24     H        1s        57 +   58
   25     H        1s        59 +   60


  Symmetry  Au ( 2)

   26     C        2pz        9 +   10
   27     C        2pz       19 +   20
   28     C        2pz       29 +   30
   29     C        2pz       43 +   44
   30     C        2pz       55 +   56


  Symmetry  Bu ( 3)

   31     C        1s         1 -    2
   32     C        1s         3 -    4
   33     C        2px        5 +    6
   34     C        2py        7 +    8
   35     C        1s        11 -   12
   36     C        1s        13 -   14
   37     C        2px       15 +   16
   38     C        2py       17 +   18
   39     C        1s        21 -   22
   40     C        1s        23 -   24
   41     C        2px       25 +   26
   42     C        2py       27 +   28
   43     H        1s        31 -   32
   44     H        1s        33 -   34
   45     C        1s        35 -   36
   46     C        1s        37 -   38
   47     C        2px       39 +   40
   48     C        2py       41 +   42
   49     H        1s        45 -   46
   50     C        1s        47 -   48
   51     C        1s        49 -   50
   52     C        2px       51 +   52
   53     C        2py       53 +   54
   54     H        1s        57 -   58
   55     H        1s        59 -   60


  Symmetry  Bg ( 4)

   56     C        2pz        9 -   10
   57     C        2pz       19 -   20
   58     C        2pz       29 -   30
   59     C        2pz       43 -   44
   60     C        2pz       55 -   56

  Symmetries of electric field:  Bu (3)  Bu (3)  Au (2)

  Symmetries of magnetic field:  Bg (4)  Bg (4)  Ag (1)


 Copy of .mol input
 ------------------

 - as modified by symmetry addition module

--------------------------------------------------------------------------------
BASIS                                                                           
STO-3G                                                                          
divinylbenzene                                                                  
Generated by Open Babel                                                         
ATOMTYPES=6 GENERATORS=2 Z  XY                                                  
Charge=6.0 Atoms=3                                                              
C       1.34987786521091    2.34941251953557    0.00000000000000                
C       2.65435173067472    0.00000000000000    0.00000000000000                
C      -1.33679822946305    2.29957211747063    0.00000000000000                
Charge=1.0 Atoms=2                                                              
H       4.73061963536303   -0.00581864639787    0.00000000000000                
H      -2.38850485626033    4.08604067785497    0.00000000000000                
Charge=6.0 Atoms=1                                                              
C       2.84302642867006    4.75405952135820    0.00000000000000                
Charge=1.0 Atoms=1                                                              
H       4.90714745978632    4.49299343060989    0.00000000000000                
Charge=6.0 Atoms=1                                                              
C       1.90863932692959    7.11620099720983    0.00000000000000                
Charge=1.0 Atoms=2                                                              
H      -0.12506744149334    7.50794220775601    0.00000000000000                
H       3.15939030092834    8.76861592293143    0.00000000000000                
--------------------------------------------------------------------------------



                     .---------------------------------------.
                     | Starting in Integral Section (HERMIT) |
                     `---------------------------------------'



 ***************************************************************************************
 ****************** Output from **INTEGRALS input processing (HERMIT) ******************
 ***************************************************************************************


 - Using defaults, no **INTEGRALS input found

 Default print level:        1

 Calculation of one- and two-electron Hamiltonian integrals.

 Center of mass  (bohr):      0.000000000000      0.000000000000      0.000000000000
 Operator center (bohr):      0.000000000000      0.000000000000      0.000000000000
 Gauge origin    (bohr):      0.000000000000      0.000000000000      0.000000000000
 Dipole origin   (bohr):      0.000000000000      0.000000000000      0.000000000000


     ************************************************************************
     ************************** Output from HERINT **************************
     ************************************************************************



                      Nuclear contribution to dipole moments
                      --------------------------------------

                    All dipole components are zero by symmetry



 Threshold for neglecting two-electron integrals:  1.00D-12
 HERMIT - Number of two-electron integrals written:      491917 ( 29.4% )
 HERMIT - Megabytes written:                              5.634

  Time used in TWOINT     is       0.85 seconds
  Total CPU  time used in HERMIT:   0.90 seconds
  Total wall time used in HERMIT:   0.90 seconds


                        .----------------------------------.
                        | End of Integral Section (HERMIT) |
                        `----------------------------------'



                   .--------------------------------------------.
                   | Starting in Wave Function Section (SIRIUS) |
                   `--------------------------------------------'



 Settings for DFT calculation:
 -----------------------------

     Default thresholds:                                       1.00D-09    1.00D-10    2.00D-12
     Default threshold for number of electrons:                1.00D-03
     DFT radial quadrature accuracy and ang. expansion order:              2.00D-15  64

 *** Output from Huckel module :

     Using EWMO model:          F
     Using EHT  model:          T
     Number of Huckel orbitals each symmetry:   25    5   25    5

 Huckel EHT eigenvalues for symmetry :  1
          -11.412667     -11.394444     -11.380082     -11.373930     -11.366652
           -1.590572      -1.271262      -1.005483      -0.873302      -0.806759
           -0.700274      -0.549017      -0.505801      -0.412120      -0.396237
           -0.236269      -0.222264      -0.218170      -0.210043      -0.202957
           -0.184659      -0.179254      -0.174633      -0.168871      -0.162771

 Huckel EHT eigenvalues for symmetry :  2
           -0.739871      -0.491895      -0.316005      -0.289880      -0.257531

 Huckel EHT eigenvalues for symmetry :  3
          -11.404364     -11.393031     -11.385456     -11.370506     -11.360644
           -1.419628      -1.246250      -1.068443      -0.839873      -0.667467
           -0.602988      -0.536545      -0.523208      -0.446556      -0.440004
           -0.245140      -0.227990      -0.211513      -0.204377      -0.203207
           -0.182591      -0.175467      -0.166167      -0.162339      -0.160749

 Huckel EHT eigenvalues for symmetry :  4
           -0.583648      -0.460396      -0.409222      -0.286360      -0.234191

 **********************************************************************
 *SIRIUS* a direct, restricted step, second order MCSCF program       *
 **********************************************************************

 
     Date and time (Linux)  : Mon Dec 10 23:05:17 2018
     Host name              : osmium                                  

 Title lines from ".mol" input file:
     divinylbenzene                                                          
     Generated by Open Babel                                                 

 Print level on unit LUPRI =   2 is   0
 Print level on unit LUW4  =   2 is   5

@    Restricted, closed shell Kohn-Sham DFT calculation.

 Initial molecular orbitals are obtained according to
 ".MOSTART EHT   " input option

     Wave function specification
     ============================
@    Wave function type        --- KS-DFT ---
@    Number of closed shell electrons          70
@    Number of electrons in active shells       0
@    Total charge of the molecule               0

@    Spin multiplicity and 2 M_S                1         0
@    Total number of symmetries                 4 (point group: C2h)
@    Reference state symmetry                   1 (irrep name : Ag )
 
     This is a DFT calculation of type: BP86
 Weighted mixed functional:
                      PZ81:    1.00000
                      P86c:    1.00000
                     Becke:    1.00000
                    Slater:    1.00000

     Orbital specifications
     ======================
@    Abelian symmetry species          All |    1    2    3    4
@                                          |  Ag   Au   Bu   Bg 
                                       --- |  ---  ---  ---  ---
@    Total number of orbitals           60 |   25    5   25    5
@    Number of basis functions          60 |   25    5   25    5

      ** Automatic occupation of RKS orbitals **

      -- Initial occupation of symmetries is determined from extended Huckel guess.           
      -- Initial occupation of symmetries is :
@    Occupied SCF orbitals              35 |   15    2   15    3

     Maximum number of Fock   iterations      0
     Maximum number of DIIS   iterations     60
     Maximum number of QC-SCF iterations     60
     Threshold for SCF convergence     1.00D-08
 
     This is a DFT calculation of type: BP86
 Weighted mixed functional:
                      PZ81:    1.00000
                      P86c:    1.00000
                     Becke:    1.00000
                    Slater:    1.00000


 ***********************************************
 ***** DIIS acceleration of SCF iterations *****
 ***********************************************

 C1-DIIS algorithm; max error vectors =    8


                      DFT-D Empirical Dispersion Correction
                      -------------------------------------

       Running DFT-D Version :     3
                   Reference : S. Grimme, J. Antony, S. Ehrlich and H. Krieg, 
                               J. Chem. Phys. 132 (2010), 154104
       Becke-Johnson Damping :    F
                3-body terms :    F


                      DFT-D3 Functional Dependent Parameters
                      --------------------------------------

      s_6 =       1.000000000000     sr_6 =       1.139000000000
      s_8 =       1.683000000000     sr_8 =       1.000000000000
      alp =      14.000000000000


                          +------------------------------+
                          ! Dispersion Energy Correction !
                          +------------------------------+

                      E_disp :         -0.014849606680

 Automatic occupation of symmetries with  70 electrons.

 Iter     Total energy    Error norm  Delta(E)    SCF occupation
 -----------------------------------------------------------------------------
      K-S energy, electrons, error :    -57.886805013140  69.9999947643   -5.24D-06
@  1  -381.924296765       4.02D+00  -3.82D+02    15   2  15   3
      Virial theorem: -V/T =      2.009729
@    MULPOP   C   _1  0.15; C   _2  0.15; C   _1  0.12; C   _2  0.12; C   _1  0.11; C   _2  0.11; H   _1 -0.15; H   _2 -0.15; H   _1 -0.14; H   _2 -0.14; 
@             C   _1  0.23; C   _2  0.23; H   _1 -0.15; H   _2 -0.15; C   _1  0.08; C   _2  0.08; H   _1 -0.12; H   _2 -0.12; H   _1 -0.13; H   _2 -0.13; 
   1  Level shift: doubly occupied orbital energies shifted by -2.00D-01
 -----------------------------------------------------------------------------
      K-S energy, electrons, error :    -57.964911302683  69.9999948319   -5.17D-06
@  2  -382.287167980       7.65D-01  -3.63D-01    15   2  15   3
      Virial theorem: -V/T =      2.015087
@    MULPOP   C   _1 -0.12; C   _2 -0.12; C   _1 -0.15; C   _2 -0.15; C   _1 -0.13; C   _2 -0.13; H   _1  0.18; H   _2  0.18; H   _1  0.18; H   _2  0.18; 
@             C   _1 -0.32; C   _2 -0.32; H   _1  0.18; H   _2  0.18; C   _1 -0.11; C   _2 -0.11; H   _1  0.13; H   _2  0.13; H   _1  0.14; H   _2  0.14; 
   2  Level shift: doubly occupied orbital energies shifted by -5.00D-02
 -----------------------------------------------------------------------------
      K-S energy, electrons, error :    -57.818493775952  69.9999948573   -5.14D-06
@  3  -382.265705281       9.34D-01   2.15D-02    15   2  15   3
      Virial theorem: -V/T =      2.018040
@    MULPOP   C   _1  0.12; C   _2  0.12; C   _1 -0.06; C   _2 -0.06; C   _1 -0.09; C   _2 -0.09; H   _1  0.03; H   _2  0.03; H   _1  0.03; H   _2  0.03; 
@             C   _1  0.25; C   _2  0.25; H   _1  0.01; H   _2  0.01; C   _1 -0.46; C   _2 -0.46; H   _1  0.08; H   _2  0.08; H   _1  0.08; H   _2  0.08; 
   3  Level shift: doubly occupied orbital energies shifted by -5.00D-02
 -----------------------------------------------------------------------------
      K-S energy, electrons, error :    -57.829385727847  69.9999948556   -5.14D-06
@  4  -382.333714252       2.47D-01  -6.80D-02    15   2  15   3
      Virial theorem: -V/T =      2.017882
@    MULPOP   C   _1 -0.00; C   _2 -0.00; C   _1 -0.07; C   _2 -0.07; C   _1 -0.06; C   _2 -0.06; H   _1  0.06; H   _2  0.06; H   _1  0.06; H   _2  0.06; 
@             C   _1 -0.13; C   _2 -0.13; H   _1  0.07; H   _2  0.07; C   _1 -0.04; C   _2 -0.04; H   _1  0.05; H   _2  0.05; H   _1  0.05; H   _2  0.05; 
   4  Level shift: doubly occupied orbital energies shifted by -2.50D-02
 -----------------------------------------------------------------------------
      K-S energy, electrons, error :    -57.854886131117  69.9999948519   -5.15D-06
@  5  -382.338294621       4.38D-02  -4.58D-03    15   2  15   3
      Virial theorem: -V/T =      2.017392
@    MULPOP   C   _1 -0.02; C   _2 -0.02; C   _1 -0.08; C   _2 -0.08; C   _1 -0.08; C   _2 -0.08; H   _1  0.08; H   _2  0.08; H   _1  0.08; H   _2  0.08; 
@             C   _1 -0.09; C   _2 -0.09; H   _1  0.08; H   _2  0.08; C   _1 -0.15; C   _2 -0.15; H   _1  0.08; H   _2  0.08; H   _1  0.08; H   _2  0.08; 
 -----------------------------------------------------------------------------
      K-S energy, electrons, error :    -57.855807564661  69.9999948535   -5.15D-06
@  6  -382.338441140       1.51D-02  -1.47D-04    15   2  15   3
      Virial theorem: -V/T =      2.017375
@    MULPOP   C   _1 -0.00; C   _2 -0.00; C   _1 -0.09; C   _2 -0.09; C   _1 -0.08; C   _2 -0.08; H   _1  0.08; H   _2  0.08; H   _1  0.08; H   _2  0.08; 
@             C   _1 -0.09; C   _2 -0.09; H   _1  0.08; H   _2  0.08; C   _1 -0.16; C   _2 -0.16; H   _1  0.08; H   _2  0.08; H   _1  0.08; H   _2  0.08; 
 -----------------------------------------------------------------------------
      K-S energy, electrons, error :    -57.855417278682  69.9999948530   -5.15D-06
@  7  -382.338457706       3.76D-03  -1.66D-05    15   2  15   3
      Virial theorem: -V/T =      2.017382
@    MULPOP   C   _1 -0.01; C   _2 -0.01; C   _1 -0.08; C   _2 -0.08; C   _1 -0.08; C   _2 -0.08; H   _1  0.08; H   _2  0.08; H   _1  0.08; H   _2  0.08; 
@             C   _1 -0.08; C   _2 -0.08; H   _1  0.08; H   _2  0.08; C   _1 -0.16; C   _2 -0.16; H   _1  0.08; H   _2  0.08; H   _1  0.08; H   _2  0.08; 
 -----------------------------------------------------------------------------
      K-S energy, electrons, error :    -57.855410624827  69.9999948528   -5.15D-06
@  8  -382.338459014       9.92D-04  -1.31D-06    15   2  15   3
      Virial theorem: -V/T =      2.017382
@    MULPOP   C   _1 -0.01; C   _2 -0.01; C   _1 -0.08; C   _2 -0.08; C   _1 -0.08; C   _2 -0.08; H   _1  0.08; H   _2  0.08; H   _1  0.08; H   _2  0.08; 
@             C   _1 -0.08; C   _2 -0.08; H   _1  0.08; H   _2  0.08; C   _1 -0.16; C   _2 -0.16; H   _1  0.08; H   _2  0.08; H   _1  0.08; H   _2  0.08; 
 -----------------------------------------------------------------------------
      K-S energy, electrons, error :    -57.855414294178  69.9999948529   -5.15D-06
@  9  -382.338459097       1.58D-04  -8.23D-08    15   2  15   3
      Virial theorem: -V/T =      2.017382
@    MULPOP   C   _1 -0.01; C   _2 -0.01; C   _1 -0.08; C   _2 -0.08; C   _1 -0.08; C   _2 -0.08; H   _1  0.08; H   _2  0.08; H   _1  0.08; H   _2  0.08; 
@             C   _1 -0.08; C   _2 -0.08; H   _1  0.08; H   _2  0.08; C   _1 -0.16; C   _2 -0.16; H   _1  0.08; H   _2  0.08; H   _1  0.08; H   _2  0.08; 
 -----------------------------------------------------------------------------
      K-S energy, electrons, error :    -57.855412992507  69.9999948529   -5.15D-06
@ 10  -382.338459101       7.56D-05  -4.47D-09    15   2  15   3
      Virial theorem: -V/T =      2.017382
@    MULPOP   C   _1 -0.01; C   _2 -0.01; C   _1 -0.08; C   _2 -0.08; C   _1 -0.08; C   _2 -0.08; H   _1  0.08; H   _2  0.08; H   _1  0.08; H   _2  0.08; 
@             C   _1 -0.08; C   _2 -0.08; H   _1  0.08; H   _2  0.08; C   _1 -0.16; C   _2 -0.16; H   _1  0.08; H   _2  0.08; H   _1  0.08; H   _2  0.08; 
 -----------------------------------------------------------------------------
      K-S energy, electrons, error :    -57.855413137685  69.9999948529   -5.15D-06
@ 11  -382.338459099       3.18D-06   2.24D-09    15   2  15   3
      Virial theorem: -V/T =      2.017382
@    MULPOP   C   _1 -0.01; C   _2 -0.01; C   _1 -0.08; C   _2 -0.08; C   _1 -0.08; C   _2 -0.08; H   _1  0.08; H   _2  0.08; H   _1  0.08; H   _2  0.08; 
@             C   _1 -0.08; C   _2 -0.08; H   _1  0.08; H   _2  0.08; C   _1 -0.16; C   _2 -0.16; H   _1  0.08; H   _2  0.08; H   _1  0.08; H   _2  0.08; 
 -----------------------------------------------------------------------------
      K-S energy, electrons, error :    -57.855413148090  69.9999948529   -5.15D-06
@ 12  -382.338459099       3.29D-07  -1.14D-12    15   2  15   3
      Virial theorem: -V/T =      2.017382
@    MULPOP   C   _1 -0.01; C   _2 -0.01; C   _1 -0.08; C   _2 -0.08; C   _1 -0.08; C   _2 -0.08; H   _1  0.08; H   _2  0.08; H   _1  0.08; H   _2  0.08; 
@             C   _1 -0.08; C   _2 -0.08; H   _1  0.08; H   _2  0.08; C   _1 -0.16; C   _2 -0.16; H   _1  0.08; H   _2  0.08; H   _1  0.08; H   _2  0.08; 
 -----------------------------------------------------------------------------
      K-S energy, electrons, error :    -57.855413143219  69.9999948529   -5.15D-06
@ 13  -382.338459099       6.90D-08  -1.36D-12    15   2  15   3
      Virial theorem: -V/T =      2.017382
@    MULPOP   C   _1 -0.01; C   _2 -0.01; C   _1 -0.08; C   _2 -0.08; C   _1 -0.08; C   _2 -0.08; H   _1  0.08; H   _2  0.08; H   _1  0.08; H   _2  0.08; 
@             C   _1 -0.08; C   _2 -0.08; H   _1  0.08; H   _2  0.08; C   _1 -0.16; C   _2 -0.16; H   _1  0.08; H   _2  0.08; H   _1  0.08; H   _2  0.08; 
 -----------------------------------------------------------------------------
      K-S energy, electrons, error :    -57.855413150879  69.9999948529   -5.15D-06
@ 14  -382.338459099       1.57D-08   3.30D-12    15   2  15   3
      Virial theorem: -V/T =      2.017382
@    MULPOP   C   _1 -0.01; C   _2 -0.01; C   _1 -0.08; C   _2 -0.08; C   _1 -0.08; C   _2 -0.08; H   _1  0.08; H   _2  0.08; H   _1  0.08; H   _2  0.08; 
@             C   _1 -0.08; C   _2 -0.08; H   _1  0.08; H   _2  0.08; C   _1 -0.16; C   _2 -0.16; H   _1  0.08; H   _2  0.08; H   _1  0.08; H   _2  0.08; 
 -----------------------------------------------------------------------------
      K-S energy, electrons, error :    -57.855413148398  69.9999948529   -5.15D-06
@ 15  -382.338459099       7.69D-09  -3.07D-12    15   2  15   3

@ *** DIIS converged in  15 iterations !
@     Converged SCF energy, gradient:   -382.338459098768    7.69D-09
    - total time used in SIRFCK :              0.00 seconds


 *** SCF orbital energy analysis ***

 Only the 20 lowest virtual orbital energies printed in each symmetry.

 Number of electrons :   70
 Orbital occupations :   15    2   15    3

 Sym       Kohn-Sham orbital energies

1 Ag     -9.74569286    -9.73266187    -9.73197641    -9.73100372    -9.71636408
         -0.73554975    -0.64873700    -0.52967088    -0.50208069    -0.45672828
         -0.40784046    -0.34846744    -0.30215291    -0.25176552    -0.24636349
          0.28563418     0.33279563     0.35931553     0.38641099     0.42446003
          0.47022901     0.51988730     0.58032802     0.62225570     0.71515213

2 Au     -0.28319339    -0.17947220     0.00780036     0.05558536     0.13963898


3 Bu     -9.74573779    -9.73266302    -9.73196304    -9.73114796    -9.71636410
         -0.68280973    -0.63226273    -0.60147175    -0.47576906    -0.39026670
         -0.36276600    -0.35072616    -0.32849295    -0.30563096    -0.26873162
          0.29402998     0.32997765     0.36020275     0.37501754     0.40120091
          0.49059006     0.54053085     0.56597571     0.65608226     0.72934733

4 Bg     -0.22792380    -0.16664657    -0.12857648     0.07196834     0.22229129


    E(LUMO) :     0.00780036 au (symmetry 2)
  - E(HOMO) :    -0.12857648 au (symmetry 4)
  ------------------------------------------
    gap     :     0.13637684 au

 --- Writing SIRIFC interface file

 CPU and wall time for SCF :      62.297      62.362


                       .-----------------------------------.
                       | --- Final results from SIRIUS --- |
                       `-----------------------------------'


@    Spin multiplicity:           1
@    Spatial symmetry:            1 ( irrep  Ag  in C2h )
@    Total charge of molecule:    0

@    Final DFT energy:           -382.338459098768                 
@    Nuclear repulsion:           445.936979976608
@    Electronic energy:          -828.275439075376

@    Final gradient norm:           0.000000007692

 
     Date and time (Linux)  : Mon Dec 10 23:06:19 2018
     Host name              : osmium                                  

File label for MO orbitals:  10Dec18   FOCKDIIS

 (Only coefficients > 0.0100 are printed.)

 Molecular orbitals for symmetry species 1  (Ag )
 ------------------------------------------------

    Orbital         6        7        8        9       10       11       12
   1 C   :1s    -0.1081  -0.0054   0.0704  -0.0556   0.0536   0.0337  -0.0227
   2 C   :1s     0.2746   0.0173  -0.2048   0.1647  -0.1592  -0.1111   0.0758
   3 C   :2px   -0.0200   0.0433  -0.1408  -0.1487   0.0329  -0.0939   0.0202
   4 C   :2py   -0.0375   0.0875  -0.0240   0.1237   0.1431  -0.1043   0.0046
   5 C   :1s    -0.0981   0.0461   0.0045   0.1108  -0.0072   0.0141   0.0258
   6 C   :1s     0.2471  -0.1207  -0.0143  -0.3277   0.0270  -0.0546  -0.0868
   7 C   :2px   -0.0559   0.0287  -0.0296  -0.0899   0.1475  -0.1751   0.0360
   8 C   :2py    0.0052   0.0296  -0.1596  -0.0032  -0.1444  -0.0867   0.0764
   9 C   :1s    -0.0978   0.0414  -0.0827  -0.0563  -0.0531  -0.0209  -0.0189
  10 C   :1s     0.2467  -0.1079   0.2363   0.1676   0.1697   0.0601   0.0710
  11 C   :2px    0.0326   0.0147  -0.0668   0.1411  -0.1769   0.0293   0.0139
  12 C   :2py   -0.0460   0.0463   0.0031   0.1288   0.1110  -0.1539   0.1424
  13 H   :1s     0.0449  -0.0229  -0.0214  -0.1671   0.1002  -0.1322  -0.0062
  14 H   :1s     0.0451  -0.0158   0.1059   0.0807   0.1695  -0.0848   0.1138
  15 C   :1s    -0.0493  -0.1198   0.0530  -0.0078  -0.0582  -0.0424   0.0288
  16 C   :1s     0.1267   0.3159  -0.1597   0.0252   0.1781   0.1356  -0.0849
  17 C   :2px   -0.0216  -0.0217  -0.0329  -0.0729   0.0566   0.1745   0.2072
  18 C   :2py   -0.0227   0.0681   0.1485  -0.0573  -0.0235   0.1321  -0.1616
  19 H   :1s     0.0253   0.0765  -0.0793  -0.0322   0.1073   0.1546   0.1415
  20 C   :1s    -0.0242  -0.1175  -0.0841   0.0392   0.0517   0.0182   0.0046
  21 C   :1s     0.0613   0.3099   0.2429  -0.1178  -0.1644  -0.0681  -0.0001
  22 C   :2px    0.0041   0.0273  -0.0203  -0.0317   0.0423   0.2043   0.1101
  23 C   :2py   -0.0230  -0.0652   0.0478  -0.0428  -0.1017  -0.0668   0.3211
  24 H   :1s     0.0139   0.0738   0.1026  -0.0231  -0.0902  -0.1792  -0.0256
  25 H   :1s     0.0103   0.0744   0.0963  -0.0687  -0.0958   0.0184   0.2620

    Orbital        13       14       15       16       17       18       19
   1 C   :1s     0.0256   0.0038  -0.0070   0.0697  -0.0241   0.0547   0.1284
   2 C   :1s    -0.0928  -0.0248   0.0337  -0.4088   0.1455  -0.3296  -0.7780
   3 C   :2px    0.0848   0.0152   0.3104  -0.1769   0.0700   0.1946   0.0267
   4 C   :2py   -0.0332  -0.2934  -0.0295  -0.2271  -0.1079  -0.2355   0.0354
   5 C   :1s     0.0058  -0.0022  -0.0123   0.0275   0.0655   0.0726  -0.0825
   6 C   :1s    -0.0292   0.0074   0.0368  -0.1692  -0.3989  -0.4429   0.5140
   7 C   :2px   -0.1662  -0.0155  -0.2235  -0.3016  -0.0438   0.0160   0.1134
   8 C   :2py   -0.0788   0.3058   0.0462   0.0586  -0.1190   0.1781   0.2568
   9 C   :1s    -0.0078   0.0087   0.0081   0.0461   0.0202  -0.1040  -0.0639
  10 C   :1s     0.0266  -0.0242  -0.0233  -0.2773  -0.1292   0.6347   0.3982
  11 C   :2px   -0.1086   0.0226  -0.2954   0.1482   0.0864   0.0374   0.3129
  12 C   :2py   -0.1075   0.2457   0.0188  -0.1837  -0.2545  -0.0229   0.1483
  13 H   :1s    -0.1563  -0.0062  -0.2612   0.4116   0.2946   0.2241  -0.3293
  14 H   :1s     0.0122   0.2350   0.1631   0.4228   0.2936  -0.2294  -0.1882
  15 C   :1s    -0.0171   0.0208  -0.0103  -0.0513  -0.0633  -0.0256  -0.0919
  16 C   :1s     0.0731  -0.0869   0.0351   0.2894   0.3800   0.1616   0.5542
  17 C   :2px    0.1651   0.1342  -0.1598  -0.3470   0.3408   0.0490   0.0810
  18 C   :2py   -0.1574   0.2205  -0.0460  -0.2335  -0.0476  -0.2688  -0.1133
  19 H   :1s     0.2010   0.0738  -0.1820   0.1398  -0.5793  -0.1733  -0.3654
  20 C   :1s     0.0108  -0.0083  -0.0053   0.0415   0.0200  -0.1019   0.0682
  21 C   :1s    -0.0279   0.0212   0.0203  -0.2402  -0.1112   0.6366  -0.4138
  22 C   :2px   -0.2924  -0.0277   0.1148  -0.1797   0.3662  -0.1934  -0.0076
  23 C   :2py    0.0595  -0.1468  -0.0115  -0.0885   0.1174   0.1499  -0.0410
  24 H   :1s     0.2677   0.0593  -0.1144  -0.1071   0.3911  -0.5052   0.2229
  25 H   :1s    -0.1415  -0.1414   0.0836   0.3608  -0.2521  -0.3142   0.2512

    Orbital        20       21       22       23       24       25
   1 C   :1s     0.0361   0.0661   0.0004   0.0149  -0.0164  -0.0051
   2 C   :1s    -0.2258  -0.4406   0.0028  -0.0897   0.1049   0.0338
   3 C   :2px   -0.3074   0.3309  -0.2066  -0.2391   0.0042   0.6402
   4 C   :2py    0.1654   0.5222   0.0323  -0.2996   0.4027  -0.2905
   5 C   :1s    -0.1100  -0.0113  -0.0038   0.0269   0.0189   0.0073
   6 C   :1s     0.6942   0.0735   0.0300  -0.1884  -0.1366  -0.0514
   7 C   :2px   -0.1319  -0.3698  -0.5751   0.3705   0.0331   0.0375
   8 C   :2py   -0.0800   0.3004   0.0036   0.2697   0.4092  -0.5822
   9 C   :1s     0.0974  -0.0482   0.0019  -0.0314  -0.0165  -0.0075
  10 C   :1s    -0.6174   0.3112  -0.0187   0.2160   0.1196   0.0510
  11 C   :2px    0.1900   0.2935  -0.3517  -0.2682  -0.1401   0.5501
  12 C   :2py    0.1208  -0.1433   0.5572  -0.2229  -0.4294   0.2330
  13 H   :1s    -0.2112   0.2546   0.4499  -0.2094   0.0405  -0.0067
  14 H   :1s     0.3332   0.0622  -0.5200  -0.0581   0.1951   0.0391
  15 C   :1s    -0.0297   0.0761  -0.0504  -0.0403  -0.0422  -0.0276
  16 C   :1s     0.2078  -0.4965   0.3443   0.2797   0.3300   0.2186
  17 C   :2px    0.0052  -0.1452  -0.0588  -0.5761   0.1240  -0.2930
  18 C   :2py   -0.0842   0.0454   0.1853   0.0266   0.6591   0.4521
  19 H   :1s    -0.0711   0.3079  -0.0894   0.3171  -0.1459   0.1579
  20 C   :1s    -0.0665  -0.0198   0.0421   0.0308   0.0490   0.0419
  21 C   :1s     0.4271   0.1232  -0.2860  -0.2229  -0.3659  -0.3268
  22 C   :2px    0.0093   0.3648   0.0168   0.3503  -0.4735  -0.1284
  23 C   :2py    0.4067  -0.0054   0.2767   0.4401   0.3917   0.3912
  24 H   :1s    -0.3015   0.2301   0.1404   0.2912  -0.2623  -0.0330
  25 H   :1s    -0.4828  -0.2463  -0.0652  -0.3333   0.1130  -0.0488

 Molecular orbitals for symmetry species 2  (Au )
 ------------------------------------------------

    Orbital         1        2        3        4        5
   1 C   :2pz    0.3403  -0.0086  -0.4313   0.0360   0.5053
   2 C   :2pz    0.2965  -0.1844   0.2241  -0.5844  -0.1688
   3 C   :2pz    0.2958  -0.1802   0.2777   0.5510  -0.2038
   4 C   :2pz    0.1755   0.4144  -0.2588  -0.0035  -0.5269
   5 C   :2pz    0.0889   0.4139   0.4626  -0.0147   0.3691

 Molecular orbitals for symmetry species 3  (Bu )
 ------------------------------------------------

    Orbital         6        7        8        9       10       11       12
   1 C   :1s    -0.1043  -0.0128  -0.0991   0.0136   0.0218   0.0706   0.0238
   2 C   :1s     0.2757   0.0346   0.2725  -0.0387  -0.0751  -0.2408  -0.0814
   3 C   :2px    0.0159   0.1087  -0.0355   0.0979   0.0713  -0.0854   0.2575
   4 C   :2py    0.0297  -0.0647  -0.0457   0.1059  -0.1721   0.0615   0.0578
   5 C   :1s    -0.0395  -0.1326  -0.0400   0.0514  -0.0220  -0.0481   0.0011
   6 C   :1s     0.1034   0.3578   0.1107  -0.1573   0.0746   0.1666  -0.0010
   7 C   :2px   -0.0044  -0.0141  -0.0033   0.0041   0.0783   0.1871   0.0477
   8 C   :2py    0.0651  -0.0531   0.0978  -0.0048   0.1680  -0.1336   0.1147
   9 C   :1s    -0.0432   0.1201  -0.0736   0.0304  -0.0431  -0.0450   0.0117
  10 C   :1s     0.1135  -0.3240   0.2033  -0.0924   0.1415   0.1573  -0.0366
  11 C   :2px    0.0580   0.0557   0.0652  -0.0617  -0.1240  -0.0421  -0.2555
  12 C   :2py    0.0291   0.0474   0.0248  -0.0611  -0.0642   0.2049   0.0343
  13 H   :1s     0.0271   0.0979   0.0313  -0.0498   0.0966   0.2270   0.0392
  14 H   :1s     0.0311  -0.0895   0.0529  -0.0554   0.0568   0.2292   0.1334
  15 C   :1s    -0.1137  -0.0001   0.0521  -0.0996   0.0178  -0.0153  -0.0023
  16 C   :1s     0.2967   0.0010  -0.1382   0.3059  -0.0545   0.0428   0.0140
  17 C   :2px   -0.0342   0.0161  -0.0088   0.0956   0.2420   0.0104  -0.0246
  18 C   :2py    0.0024  -0.0263  -0.1339  -0.0779   0.0190   0.1303  -0.1853
  19 H   :1s     0.0668   0.0100  -0.0377   0.1689   0.1522   0.0311   0.0115
  20 C   :1s    -0.0801   0.0152   0.1114   0.0809  -0.0087   0.0125   0.0008
  21 C   :1s     0.2074  -0.0397  -0.3029  -0.2508   0.0337  -0.0521   0.0086
  22 C   :2px    0.0169   0.0040  -0.0271   0.0847   0.1600   0.0271  -0.2467
  23 C   :2py   -0.0588   0.0056   0.0258  -0.1273   0.1665  -0.1487   0.0510
  24 H   :1s     0.0481  -0.0154  -0.0773  -0.1591  -0.0717  -0.0426   0.2131
  25 H   :1s     0.0430  -0.0094  -0.0903  -0.1226   0.1773  -0.1016  -0.0852

    Orbital        13       14       15       16       17       18       19
   1 C   :1s    -0.0025   0.0035   0.0104   0.0355  -0.0602  -0.0816  -0.0213
   2 C   :1s     0.0086  -0.0132  -0.0455  -0.2081   0.3491   0.4783   0.1327
   3 C   :2px    0.0514   0.0895  -0.1698  -0.3151   0.0648  -0.1067  -0.1860
   4 C   :2py   -0.1041  -0.2251  -0.1930  -0.0354   0.4661   0.0412  -0.1890
   5 C   :1s    -0.0295  -0.0178  -0.0066  -0.0069   0.0268   0.0757   0.0589
   6 C   :1s     0.0946   0.0649   0.0205   0.0341  -0.1624  -0.4497  -0.3649
   7 C   :2px   -0.3400  -0.0133  -0.0751  -0.3365  -0.0461  -0.0892  -0.4030
   8 C   :2py   -0.0254   0.2433  -0.0198   0.1107   0.2599   0.0475  -0.1844
   9 C   :1s     0.0202  -0.0077  -0.0137  -0.0168   0.0073   0.1027   0.0061
  10 C   :1s    -0.0641   0.0224   0.0477   0.1019  -0.0361  -0.6198  -0.0254
  11 C   :2px   -0.1020  -0.1310   0.1384  -0.2673  -0.1411  -0.0439  -0.2328
  12 C   :2py    0.2759  -0.1602  -0.0432   0.0894   0.3905  -0.1350  -0.0248
  13 H   :1s    -0.2509   0.0107  -0.0463   0.3195   0.1253   0.3328   0.5996
  14 H   :1s     0.2174  -0.0497  -0.0520  -0.2690  -0.3987   0.3660  -0.0507
  15 C   :1s    -0.0021  -0.0014   0.0025   0.0058   0.0958   0.0390  -0.0716
  16 C   :1s     0.0051  -0.0116  -0.0053  -0.0358  -0.5592  -0.2457   0.4488
  17 C   :2px    0.0395  -0.1221   0.2617  -0.3994   0.1632  -0.0935   0.1952
  18 C   :2py    0.0590   0.2462   0.0779  -0.0898   0.2928   0.2116  -0.1285
  19 H   :1s     0.0148  -0.1439   0.2613   0.4301   0.1739   0.2070  -0.4410
  20 C   :1s     0.0045  -0.0211   0.0039   0.0031  -0.0507   0.0849  -0.0218
  21 C   :1s    -0.0190   0.0589  -0.0155  -0.0221   0.2958  -0.5324   0.1450
  22 C   :2px    0.0730   0.0236  -0.2353  -0.3430   0.1390   0.1815   0.1481
  23 C   :2py   -0.0251  -0.2742  -0.0551  -0.0502   0.0903  -0.2117   0.2629
  24 H   :1s    -0.0524  -0.0490   0.2339  -0.3240   0.0071   0.4371   0.0441
  25 H   :1s     0.0120  -0.1615  -0.2126   0.2878  -0.3438   0.3172  -0.3439

    Orbital        20       21       22       23       24       25
   1 C   :1s    -0.0591  -0.0030  -0.0598   0.0885   0.0203  -0.0438
   2 C   :1s     0.3509   0.0102   0.4121  -0.5992  -0.1431   0.3261
   3 C   :2px    0.0982   0.5063   0.2331   0.1849  -0.3763  -0.3828
   4 C   :2py   -0.1629  -0.2525  -0.0787  -0.1229   0.2879  -0.5585
   5 C   :1s     0.0573   0.0961  -0.0370   0.0074  -0.0460   0.0515
   6 C   :1s    -0.3464  -0.6442   0.2516  -0.0642   0.3329  -0.3732
   7 C   :2px    0.0961  -0.0572  -0.0494  -0.2063  -0.1407   0.6168
   8 C   :2py   -0.1771  -0.0961  -0.7556   0.1612   0.1870   0.0288
   9 C   :1s     0.0647  -0.0361  -0.0867  -0.0357   0.0204   0.0565
  10 C   :1s    -0.3969   0.2512   0.5954   0.2360  -0.1523  -0.4116
  11 C   :2px    0.1130   0.3481  -0.4561   0.4032  -0.1152  -0.3283
  12 C   :2py   -0.1937   0.3809  -0.2563   0.0435  -0.1869   0.5440
  13 H   :1s     0.0719   0.3040  -0.0789   0.1410  -0.0184  -0.2704
  14 H   :1s     0.4759  -0.2114  -0.2588  -0.0039   0.1054  -0.2785
  15 C   :1s     0.0694   0.0266   0.0597   0.0245   0.0614  -0.0123
  16 C   :1s    -0.4195  -0.1921  -0.4100  -0.1868  -0.4653   0.0756
  17 C   :2px   -0.1004   0.2337  -0.0784  -0.4589   0.4100  -0.1437
  18 C   :2py   -0.0973  -0.1302  -0.0329  -0.3419  -0.6469  -0.3333
  19 H   :1s     0.2967  -0.1490   0.2324   0.3533  -0.1723   0.0475
  20 C   :1s    -0.1136  -0.0085  -0.0064  -0.0186  -0.0711  -0.0100
  21 C   :1s     0.7107   0.0656   0.0397   0.1318   0.5358   0.0844
  22 C   :2px   -0.1344  -0.1911   0.2015   0.5825   0.1803   0.2060
  23 C   :2py    0.0727  -0.4452  -0.1917   0.0349  -0.6446  -0.0813
  24 H   :1s    -0.5349  -0.0989   0.2007   0.3662   0.0101   0.1375
  25 H   :1s    -0.3213   0.3579  -0.0003  -0.3386   0.0951  -0.0642

 Molecular orbitals for symmetry species 4  (Bg )
 ------------------------------------------------

    Orbital         1        2        3        4        5
   1 C   :2pz    0.3594  -0.0095   0.3752   0.0171  -0.5455
   2 C   :2pz    0.1349  -0.4654   0.2069  -0.2460   0.4624
   3 C   :2pz    0.1372   0.4555   0.2309  -0.2360   0.4654
   4 C   :2pz    0.3736  -0.0001  -0.2251   0.5223   0.2901
   5 C   :2pz    0.2575   0.0139  -0.4120  -0.5191  -0.1545

  Total CPU  time used in SIRIUS :  1 minute   2 seconds
  Total wall time used in SIRIUS :  1 minute   2 seconds

 
     Date and time (Linux)  : Mon Dec 10 23:06:19 2018
     Host name              : osmium                                  


                     .---------------------------------------.
                     | End of Wave Function Section (SIRIUS) |
                     `---------------------------------------'


 Center of mass dipole origin  :    0.000000    0.000000    0.000000

 Center of mass gauge origin   :    0.000000    0.000000    0.000000


                 .------------------------------------------------.
                 | Starting in Static Property Section (ABACUS) - |
                 `------------------------------------------------'


 
     Date and time (Linux)  : Mon Dec 10 23:06:19 2018
     Host name              : osmium                                  


   ***************************************************************************
   ************************ FINAL RESULTS from ABACUS ************************
   ***************************************************************************


 
     Date and time (Linux)  : Mon Dec 10 23:06:19 2018
     Host name              : osmium                                  


                             Molecular geometry (au)
                             -----------------------

 C   _1     1.3498778652            2.3494125195            0.0000000000
 C   _2    -1.3498778652           -2.3494125195            0.0000000000
 C   _1     2.6543517307            0.0000000000            0.0000000000
 C   _2    -2.6543517307           -0.0000000000            0.0000000000
 C   _1    -1.3367982295            2.2995721175            0.0000000000
 C   _2     1.3367982295           -2.2995721175            0.0000000000
 H   _1     4.7306196354           -0.0058186464            0.0000000000
 H   _2    -4.7306196354            0.0058186464            0.0000000000
 H   _1    -2.3885048563            4.0860406779            0.0000000000
 H   _2     2.3885048563           -4.0860406779            0.0000000000
 C   _1     2.8430264287            4.7540595214            0.0000000000
 C   _2    -2.8430264287           -4.7540595214            0.0000000000
 H   _1     4.9071474598            4.4929934306            0.0000000000
 H   _2    -4.9071474598           -4.4929934306            0.0000000000
 C   _1     1.9086393269            7.1162009972            0.0000000000
 C   _2    -1.9086393269           -7.1162009972            0.0000000000
 H   _1    -0.1250674415            7.5079422078            0.0000000000
 H   _2     0.1250674415           -7.5079422078            0.0000000000
 H   _1     3.1593903009            8.7686159229            0.0000000000
 H   _2    -3.1593903009           -8.7686159229            0.0000000000





                        Molecular wave function and energy
                        ----------------------------------

     Spatial symmetry   1 ( Ag  )
     Spin multiplicity  1
     2 * M_S            0
     State number       1
     Total charge       0

     Total energy       -382.3384590988 au (Hartrees)
                        -10403.95870878 eV
                          -1003829.4696 kJ/mol
                           -239921.0013 kcal/mol


                   Scalar Breit-Pauli relativistic corrections
                   -------------------------------------------

     Darwin correction:                          0.3878119940 au
     Mass-velocity correction:                  -0.4893072660 au

     Total relativistic correction:             -0.1014952720 au ( 0.0265%)
     Non-relativistic + relativistic energy:  -382.4399543708 au



      (Note that these corrections are NOT included in the results below.)


                                  Dipole moment
                                  -------------

                 au               Debye          C m (/(10**-30)
              0.000000           0.000000           0.000000


                             Dipole moment components
                             ------------------------

                    All dipole components are zero by symmetry


   Units:   1 a.u. =   2.54175 Debye 
            1 a.u. =   8.47835 (10**-30) C m (SI)



  Max    interatomic separation is    9.8643 Angstrom (   18.6409 Bohr)
  between atoms   20 and   19, "H   _2" and "H   _1".

  Min HX interatomic separation is    1.0960 Angstrom (    2.0711 Bohr)

  Min YX interatomic separation is    1.3442 Angstrom (    2.5402 Bohr)


  Bond distances (Angstrom):
  --------------------------

                  atom 1     atom 2       distance
                  ------     ------       --------
  bond distance:  C   _1     C   _1       1.422039
  bond distance:  C   _2     C   _2       1.422039
  bond distance:  C   _1     C   _1       1.421972
  bond distance:  C   _1     C   _2       1.402467
  bond distance:  C   _2     C   _2       1.421972
  bond distance:  C   _2     C   _1       1.402467
  bond distance:  H   _1     C   _1       1.098718
  bond distance:  H   _2     C   _2       1.098718
  bond distance:  H   _1     C   _1       1.097013
  bond distance:  H   _2     C   _2       1.097013
  bond distance:  C   _1     C   _1       1.497844
  bond distance:  C   _2     C   _2       1.497844
  bond distance:  H   _1     C   _1       1.100988
  bond distance:  H   _2     C   _2       1.100988
  bond distance:  C   _1     C   _1       1.344234
  bond distance:  C   _2     C   _2       1.344234
  bond distance:  H   _1     C   _1       1.095975
  bond distance:  H   _2     C   _2       1.095975
  bond distance:  H   _1     C   _1       1.096668
  bond distance:  H   _2     C   _2       1.096668


  Bond angles (degrees):
  ----------------------

                  atom 1     atom 2     atom 3         angle
                  ------     ------     ------         -----
  bond angle:     C   _1     C   _1     C   _1       117.978
  bond angle:     C   _1     C   _1     C   _1       119.122
  bond angle:     C   _1     C   _1     C   _1       122.901
  bond angle:     C   _2     C   _2     C   _2       117.978
  bond angle:     C   _2     C   _2     C   _2       119.122
  bond angle:     C   _2     C   _2     C   _2       122.901
  bond angle:     C   _1     C   _1     C   _2       121.149
  bond angle:     C   _1     C   _1     H   _1       119.201
  bond angle:     C   _2     C   _1     H   _1       119.650
  bond angle:     C   _2     C   _2     C   _1       121.149
  bond angle:     C   _2     C   _2     H   _2       119.201
  bond angle:     C   _1     C   _2     H   _2       119.650
  bond angle:     C   _1     C   _1     C   _2       120.874
  bond angle:     C   _1     C   _1     H   _1       119.423
  bond angle:     C   _2     C   _1     H   _1       119.704
  bond angle:     C   _2     C   _2     C   _1       120.874
  bond angle:     C   _2     C   _2     H   _2       119.423
  bond angle:     C   _1     C   _2     H   _2       119.704
  bond angle:     C   _1     C   _1     H   _1       114.630
  bond angle:     C   _1     C   _1     C   _1       126.580
  bond angle:     H   _1     C   _1     C   _1       118.791
  bond angle:     C   _2     C   _2     H   _2       114.630
  bond angle:     C   _2     C   _2     C   _2       126.580
  bond angle:     H   _2     C   _2     C   _2       118.791
  bond angle:     C   _1     C   _1     H   _1       122.485
  bond angle:     C   _1     C   _1     H   _1       121.295
  bond angle:     H   _1     C   _1     H   _1       116.220
  bond angle:     C   _2     C   _2     H   _2       122.485
  bond angle:     C   _2     C   _2     H   _2       121.295
  bond angle:     H   _2     C   _2     H   _2       116.220


  Total CPU  time used in ABACUS:   0.02 seconds
  Total wall time used in ABACUS:   0.02 seconds


                   .-------------------------------------------.
                   | End of Static Property Section (ABACUS) - |
                   `-------------------------------------------'

  Total CPU  time used in DALTON:  1 minute   3 seconds
  Total wall time used in DALTON:  1 minute   3 seconds

 
     Date and time (Linux)  : Mon Dec 10 23:06:19 2018
     Host name              : osmium                                  
