
                                 *****************
                                 * O   R   C   A *
                                 *****************

           --- An Ab Initio, DFT and Semiempirical electronic structure package ---

                  ########################################################
                  #                         -***-                        #
                  #               Developed by Frank Neese               #
                  #           Lehrstuhl fuer Theoretische Chemie         #
                  #  Institut fuer Physikalische und Theoretische Chemie #
                  #                    Universitaet Bonn                 #
                  #                        Germany                       #
                  #                theochem@thch.uni-bonn.de             #
                  #                                                      #
                  #                   All rights reserved                #
                  #                         -***-                        #
                  ########################################################


                         Program Version 2.6 - Revision 00 -
                                (SVN: $Rev: 678$)
                ($Date: 2007-05-14 11:56:14 +0200 (Mon, 14 May 2007) $)


 With contributions from (in alphabetic order):
   Ute Becker           : Parallelization
   Dmitry Ganyushin     : Spin-Orbit,Magnetic field MRCI
   Simone Kossmann      : meta GGA functionals
   Taras Petrenko       : Resonance Raman, NRVS
   Christoph Riplinger  : Improved optimizer
   Frank Wennmohs       : Multiple parts of the code


 We gratefully acknowledge several collegues who have allowed us to
 interface, adapt or use parts of their codes:
   Markus Reiher, Alexander Wolf and Bernd Hess : otool_dkh (higher order DKH)
   Andreas Klamt, Michael Diedenhofen           : otool_cosmo (COSMO solvation model)
   Alain StAmant                                : redundant internal coordinate setup
   Reinhart Ahlrichs                            : matrix diagonalization, basis sets
   Frank Weinhold                               : gennbo (NPA and NBO analysis)


Building standard basis:
Your calculation utilizes the basis: 3-21G
Cite in your paper:
H - Ne: J.S. Binkley, J.A. Pople, W.J. Hehre, J. Am. Chem. Soc. 102 939 (1980)
Na - Ar: M.S. Gordon, J.S. Binkley, J.A. Pople, W.J. Pietro and W.J. Hehre,
         J. Am. Chem. Soc. 104, 2797 (1983).
 K - Ca: K.D. Dobbs, W.J. Hehre, J. Comput. Chem. 7, 359 (1986).
Ga - Kr: K.D. Dobbs, W.J. Hehre, J. Comput. Chem. 7, 359 (1986).
Sc - Zn: K.D. Dobbs, W.J. Hehre, J. Comput. Chem. 8, 861 (1987).
Y - Cd: K.D. Dobbs, W.J. Hehre, J. Comput. Chem. 8, 880 (1987).
Cs     : A 3-21G quality set derived from the Huzinage MIDI basis sets.
        E.D. Glendening and D. Feller, J. Phys. Chem. (to be published)

Done building standard basis
================================================================================
                                       INPUT FILE
================================================================================
NAME = /u/qb/adamlt/orca/cclib/dvb_un_sp.inp
|  1> #divinyl-benzene
|  2> 
|  3> ! UKS B3LYP
|  4> 
|  5> %basis basis _3_21G 
|  6> end
|  7> 
|  8> %output
|  9>   PrintLevel		Normal
| 10>   Print[ P_MOs ]  	1
| 11>   Print[ P_Overlap ] 	1
| 12> end
| 13> 
| 14> * xyz 1 2
| 15>  C     -1.275568      0.692949      0.000000
| 16>  C     -1.211011     -0.742036      0.000000
| 17>  C      0.032360     -1.415271      0.000000
| 18>  C      1.275568     -0.692949      0.000000
| 19>  C      1.211011      0.742036      0.000000
| 20>  H     -2.143529     -1.330976      0.000000
| 21>  H      0.053320     -2.519080      0.000000
| 22>  H      2.143529      1.330976      0.000000
| 23>  C      2.571440     -1.457016      0.000000
| 24>  C      3.824633     -0.930233      0.000000
| 25>  H      4.012223      0.154429      0.000000
| 26>  H      2.455501     -2.556634      0.000000
| 27>  H      4.714807     -1.577980      0.000000
| 28>  C     -2.571440      1.457016      0.000000
| 29>  H     -2.455501      2.556634      0.000000
| 30>  C     -3.824633      0.930233      0.000000
| 31>  H     -4.012223     -0.154429      0.000000
| 32>  H     -4.714807      1.577980      0.000000
| 33>  C     -0.032360      1.415271      0.000000
| 34>  H     -0.053320      2.519080      0.000000
| 35> *
| 36> 
| 37>                          ****END OF INPUT****
================================================================================

                       ****************************
                       * Single Point Calculation *
                       ****************************

---------------------------------
CARTESIAN COORDINATES (ANGSTROEM)
---------------------------------
  C    -1.275568    0.692949    0.000000
  C    -1.211011   -0.742036    0.000000
  C     0.032360   -1.415271    0.000000
  C     1.275568   -0.692949    0.000000
  C     1.211011    0.742036    0.000000
  H    -2.143529   -1.330976    0.000000
  H     0.053320   -2.519080    0.000000
  H     2.143529    1.330976    0.000000
  C     2.571440   -1.457016    0.000000
  C     3.824633   -0.930233    0.000000
  H     4.012223    0.154429    0.000000
  H     2.455501   -2.556634    0.000000
  H     4.714807   -1.577980    0.000000
  C    -2.571440    1.457016    0.000000
  H    -2.455501    2.556634    0.000000
  C    -3.824633    0.930233    0.000000
  H    -4.012223   -0.154429    0.000000
  H    -4.714807    1.577980    0.000000
  C    -0.032360    1.415271    0.000000
  H    -0.053320    2.519080    0.000000

----------------------------
CARTESIAN COORDINATES (A.U.)
----------------------------
  NO LB    ZA    FRAG    MASS        X           Y           Z
   0 C   6.0000    0    12.011   -2.410521    1.309509    0.000000
   1 C   6.0000    0    12.011   -2.288523   -1.402272    0.000000
   2 C   6.0000    0    12.011    0.061153   -2.674526    0.000000
   3 C   6.0000    0    12.011    2.410521   -1.309509    0.000000
   4 C   6.0000    0    12.011    2.288523    1.402272    0.000000
   5 H   1.0000    0     1.008   -4.050761   -2.515229    0.000000
   6 H   1.0000    0     1.008    0.100762   -4.760463    0.000000
   7 H   1.0000    0     1.008    4.050761    2.515229    0.000000
   8 C   6.0000    0    12.011    4.859411   -2.753414    0.000000
   9 C   6.0000    0    12.011    7.227648   -1.757920    0.000000
  10 H   1.0000    0     1.008    7.582149    0.291834    0.000000
  11 H   1.0000    0     1.008    4.640314   -4.831431    0.000000
  12 H   1.0000    0     1.008    8.909866   -2.982008    0.000000
  13 C   6.0000    0    12.011   -4.859411    2.753414    0.000000
  14 H   1.0000    0     1.008   -4.640314    4.831431    0.000000
  15 C   6.0000    0    12.011   -7.227648    1.757920    0.000000
  16 H   1.0000    0     1.008   -7.582149   -0.291834    0.000000
  17 H   1.0000    0     1.008   -8.909866    2.982008    0.000000
  18 C   6.0000    0    12.011   -0.061153    2.674526    0.000000
  19 H   1.0000    0     1.008   -0.100762    4.760463    0.000000

--------------------------------
INTERNAL COORDINATES (ANGSTROEM)
--------------------------------
 C     0   0   0   0.000000     0.000     0.000
 C     1   0   0   1.436436     0.000     0.000
 C     2   1   0   1.413937   121.010     0.000
 C     3   2   1   1.437816   121.409     0.000
 C     4   3   2   1.436436   117.581     0.000
 H     2   1   3   1.102923   119.699   180.000
 H     3   2   1   1.104008   119.522   180.000
 H     5   4   3   1.102923   119.699   180.000
 C     4   3   2   1.504355   119.319   180.000
 C     9   4   3   1.359409   126.676   180.000
 H    10   9   4   1.100764   122.612     0.000
 H     9   4   3   1.105713   114.506     0.000
 H    10   9   4   1.100902   121.158   180.000
 C     1   2   3   1.504355   123.100   180.000
 H    14   1   2   1.105713   114.506   180.000
 C    14   1   2   1.359409   126.676     0.000
 H    16  14   1   1.100764   122.612     0.000
 H    16  14   1   1.100902   121.158   180.000
 C     5   4   3   1.413937   121.010     0.000
 H    19   5   4   1.104008   119.522   180.000

---------------------------
INTERNAL COORDINATES (A.U.)
---------------------------
 C     0   0   0   0.000000     0.000     0.000
 C     1   0   0   2.714524     0.000     0.000
 C     2   1   0   2.672005   121.010     0.000
 C     3   2   1   2.717131   121.409     0.000
 C     4   3   2   2.714524   117.581     0.000
 H     2   1   3   2.084263   119.699   180.000
 H     3   2   1   2.086313   119.522   180.000
 H     5   4   3   2.084263   119.699   180.000
 C     4   3   2   2.842873   119.319   180.000
 C     9   4   3   2.568960   126.676   180.000
 H    10   9   4   2.080183   122.612     0.000
 H     9   4   3   2.089535   114.506     0.000
 H    10   9   4   2.080444   121.158   180.000
 C     1   2   3   2.842873   123.100   180.000
 H    14   1   2   2.089535   114.506   180.000
 C    14   1   2   2.568960   126.676     0.000
 H    16  14   1   2.080183   122.612     0.000
 H    16  14   1   2.080444   121.158   180.000
 C     5   4   3   2.672005   121.010     0.000
 H    19   5   4   2.086313   119.522   180.000

---------------------
BASIS SET INFORMATION
---------------------
There are 2 groups of distinct atoms

 Group   1 Type C  : 6s3p contracted to 3s2p pattern {321/21}
 Group   2 Type H  : 3s contracted to 2s pattern {21}

Atom   0C   basis set group =>   1
Atom   1C   basis set group =>   1
Atom   2C   basis set group =>   1
Atom   3C   basis set group =>   1
Atom   4C   basis set group =>   1
Atom   5H   basis set group =>   2
Atom   6H   basis set group =>   2
Atom   7H   basis set group =>   2
Atom   8C   basis set group =>   1
Atom   9C   basis set group =>   1
Atom  10H   basis set group =>   2
Atom  11H   basis set group =>   2
Atom  12H   basis set group =>   2
Atom  13C   basis set group =>   1
Atom  14H   basis set group =>   2
Atom  15C   basis set group =>   1
Atom  16H   basis set group =>   2
Atom  17H   basis set group =>   2
Atom  18C   basis set group =>   1
Atom  19H   basis set group =>   2

Checking for AutoStart:
The File: /u/qb/adamlt/orca/cclib/dvb_un_sp.gbw exists
Trying to determine its content:
     ... Fine, the file contains calculation information
     ... Fine, the calculation information was read
     ... Fine, the file contains a basis set
     ... Fine, the basis set was read
     ... Fine, the file contains a geometry
     ... Fine, the geometry was read
     ... Fine, the file contains a set of orbitals
     ... Fine, the orbitals can be read
     => possible old guess file was deleted
     => GBW file was renamed to GES file
     => GES file is set as startup file
     => Guess is set to MORead
     ... now leaving AutoStart

------------------------------------------------------------------------------
                           ORCA GTO INTEGRAL CALCULATION
------------------------------------------------------------------------------

                         BASIS SET STATISTICS AND STARTUP INFO

 # of primitive gaussian shells          ...  120
 # of primitive gaussian functions       ...  180
 # of contracted shell                   ...   70
 # of contracted basis functions         ...  110
 Highest angular momentum                ...    1
 Maximum contraction depth               ...    3
 Integral threshhold             Thresh  ...  1.000e-10
 Primitive cut-off               TCut    ...  1.000e-11


                              INTEGRAL EVALUATION

 One electron integrals                  ... done
 Pre-screening matrix                    ... done
 Shell pair data                         ... done (   0.004 sec)

-------------------------------------------------------------------------------
                                 ORCA SCF
-------------------------------------------------------------------------------

------------
SCF SETTINGS
------------
Hamiltonian:
 Density Functional     Method          .... DFT(GTOs)
 Exchange Functional    Exchange        .... B88
   X-Alpha parameter    XAlpha          ....  0.666667
   Becke's b parameter  XBeta           ....  0.004200
 Correlation Functional Correlation     .... LYP
 LDA part of GGA corr.  LDAOpt          .... VWN-5
 Gradients option       PostSCFGGA      .... off
 Hybrid DFT is turned on
   Fraction HF Exchange ScalHFX         ....  0.200000
   Scaling of DF-GGA-X  ScalDFX         ....  0.720000
   Scaling of DF-GGA-C  ScalDFC         ....  0.810000
   Scaling of DF-LDA-C  ScalLDAC        ....  1.000000
   Perturbative correction              ....  0.000000


General Settings:
 Integral files         IntName         .... /u/qb/adamlt/orca/cclib/dvb_un_sp
 Hartree-Fock type      HFTyp           .... UHF
 Total Charge           Charge          ....    1
 Multiplicity           Mult            ....    2
 Number of Electrons    NEL             ....   69
 Basis Dimension        Dim             ....  110
 Nuclear Repulsion      ENuc            ....    442.1004089696 Eh

Convergence Acceleration:
 DIIS                   CNVDIIS         .... on
   Start iteration      DIISMaxIt       ....    12
   Startup error        DIISStart       ....  0.200000
   # of expansion vecs  DIISMaxEq       ....     5
   Bias factor          DIISBfac        ....   1.050
   Max. coefficient     DIISMaxC        ....  10.000
 Newton-Raphson         CNVNR           .... off
 SOSCF                  CNVSOSCF        .... off
 Level Shifting         CNVShift        .... on
   Level shift para.    LevelShift      ....    0.2500
   Turn off err/grad.   ShiftErr        ....    0.0010
 Zerner damping         CNVZerner       .... off
 Static damping         CNVDamp         .... on
   Fraction old density DampFac         ....    0.7000
   Max. Damping (<1)    DampMax         ....    0.9800
   Min. Damping (>=0)   DampMin         ....    0.0000
   Turn off err/grad.   DampErr         ....    0.1000
 Fernandez-Rico         CNVRico         .... off

SCF Procedure:
 Maximum # iterations   MaxIter         ....   125
 SCF integral mode      SCFMode         .... Direct
 Reset frequeny         DirectResetFreq ....    20
 Integral Threshold     Thresh          ....  1.000e-10 Eh
 Primitive CutOff       TCut            ....  1.000e-11 Eh

Convergence Tolerance:
 Convergence Check Mode ConvCheckMode   .... Total+1el-Energy
 Energy Change          TolE            ....  1.000e-06 Eh
 1-El. energy change                    ....  1.000e-03 Eh
 DIIS Error             TolErr          ....  3.000e-06


Diagonalization of the overlap matrix:
Smallest eigenvalue                        ... 1.781e-03
Time for diagonalization                   ...    0.115 sec
Time for construction of square roots      ...    0.100 sec
Total time needed                          ...    0.215 sec

--------------
OVERLAP MATRIX
--------------
                  0          1          2          3          4          5    
      0       1.000000   0.191447   0.180314   0.000000   0.000000  -0.000000
      1       0.191447   1.000000   0.761357   0.000000   0.000000  -0.000000
      2       0.180314   0.761357   1.000000   0.000000   0.000000  -0.000000
      3       0.000000   0.000000   0.000000   1.000000   0.000000   0.000000
      4       0.000000   0.000000   0.000000   0.000000   1.000000  -0.000000
      5      -0.000000  -0.000000  -0.000000   0.000000  -0.000000   1.000000
      6       0.000000   0.000000   0.000000   0.528959   0.000000   0.000000
      7       0.000000   0.000000  -0.000000   0.000000   0.528959  -0.000000
      8      -0.000000  -0.000000   0.000000   0.000000  -0.000000   0.528959
      9       0.000000   0.003447   0.044485   0.000000   0.000464  -0.010309
     10       0.003447   0.080636   0.248074   0.000000   0.006330  -0.140709
     11       0.044485   0.248074   0.485974   0.000000   0.008935  -0.198606
     12       0.000000   0.000000   0.000000   0.045186   0.000000   0.000000
     13      -0.000464  -0.006330  -0.008935   0.000000   0.044654   0.011829
     14       0.010309   0.140709   0.198606   0.000000   0.011829  -0.217757
     15       0.000000   0.000000   0.000000   0.165489   0.000000   0.000000
     16      -0.004658  -0.020879  -0.026238   0.000000   0.164713   0.017250
     17       0.103538   0.464094   0.583227   0.000000   0.017250  -0.217958
     18       0.000000   0.000000   0.002774   0.000000   0.000000  -0.000001
     19       0.000000   0.000310   0.026376   0.000000   0.000476  -0.000767
     20       0.002774   0.026376   0.116178   0.000000   0.018176  -0.029298
     21       0.000000   0.000000   0.000000   0.000156   0.000000   0.000000
     22      -0.000000  -0.000476  -0.018176   0.000000  -0.000577   0.001182
     23       0.000001   0.000767   0.029298   0.000000   0.001182  -0.001749
     24       0.000000   0.000000   0.000000   0.016617   0.000000   0.000000
     25      -0.005883  -0.045365  -0.127082   0.000000  -0.015273   0.051402
     26       0.009482   0.073124   0.204840   0.000000   0.051402  -0.066238
     27       0.000000   0.000000   0.000594   0.000000   0.000000  -0.000000
     28       0.000000   0.000014   0.007538   0.000000   0.000041  -0.000022
     29       0.000594   0.007538   0.052454   0.000000   0.009911  -0.005384
     30       0.000000   0.000000   0.000000   0.000007   0.000000   0.000000
     31      -0.000000  -0.000041  -0.009911   0.000000  -0.000115   0.000066
     32       0.000000   0.000022   0.005384   0.000000   0.000066  -0.000029
     33       0.000000   0.000000   0.000000   0.004645   0.000000   0.000000
     34      -0.002455  -0.025371  -0.111916   0.000000  -0.029229   0.018402
     35       0.001334   0.013783   0.060798   0.000000   0.018402  -0.005352
     36       0.000000   0.000000   0.002717   0.000000   0.000001   0.000000
     37       0.000000   0.000297   0.025941   0.000000   0.000868   0.000017
     38       0.002717   0.025941   0.114956   0.000000   0.033975   0.000671
     39       0.000000   0.000000   0.000000   0.000149   0.000000   0.000000
     40      -0.000001  -0.000868  -0.033975   0.000000  -0.002392  -0.000050
     41      -0.000000  -0.000017  -0.000671   0.000000  -0.000050   0.000148
     42       0.000000   0.000000   0.000000   0.016337   0.000000   0.000000
     43      -0.010957  -0.084830  -0.239063   0.000000  -0.096986  -0.002237
     44      -0.000216  -0.001675  -0.004719   0.000000  -0.002237   0.016293
     45       0.000001   0.001108   0.042105   0.000000  -0.001172  -0.002732
     46       0.007885   0.060153   0.193942   0.000000  -0.026607  -0.062042
     47       0.000000   0.000000   0.000694   0.000000   0.000000  -0.000000
     48       0.000080   0.001373   0.016817   0.000000   0.000874  -0.002114
     49       0.000000   0.000000   0.000688   0.000000   0.000000   0.000000
     50       0.000079   0.001363   0.016736   0.000000   0.002233   0.000417
     51       0.000000   0.000000   0.000000   0.000000   0.000000   0.000000
     52       0.000000   0.000000   0.000017   0.000000   0.000000   0.000000
     53       0.000000   0.000017   0.001122   0.000000   0.000032  -0.000018
     54       0.000000   0.000000   0.000000   0.000000   0.000000   0.000000
     55       0.000000   0.000000  -0.000032   0.000000   0.000000   0.000000
     56       0.000000   0.000000   0.000018   0.000000   0.000000   0.000000
     57       0.000000   0.000000   0.000000   0.000010   0.000000   0.000000
     58      -0.000002  -0.000087  -0.003611   0.000000  -0.000154   0.000092
     59       0.000001   0.000049   0.002018   0.000000   0.000092  -0.000041
     60       0.000000   0.000000   0.000000   0.000000   0.000000   0.000000
     61       0.000000   0.000000   0.000000   0.000000   0.000000   0.000000
     62       0.000000   0.000000   0.000045   0.000000   0.000000  -0.000000
     63       0.000000   0.000000   0.000000   0.000000   0.000000   0.000000
     64       0.000000   0.000000  -0.000000   0.000000   0.000000   0.000000
     65       0.000000   0.000000   0.000000   0.000000   0.000000   0.000000
     66       0.000000   0.000000   0.000000   0.000000   0.000000   0.000000
     67      -0.000000  -0.000001  -0.000190   0.000000  -0.000002   0.000001
     68       0.000000   0.000000   0.000061   0.000000   0.000001  -0.000000
     69       0.000000   0.000000   0.000000   0.000000   0.000000   0.000000
     70       0.000000   0.000000   0.000071   0.000000   0.000001  -0.000000
     71       0.000000   0.000000   0.000001   0.000000   0.000000   0.000000
     72       0.000000   0.000002   0.000254   0.000000   0.000003  -0.000003
     73       0.000000   0.000000   0.000000   0.000000   0.000000   0.000000
     74       0.000000   0.000000   0.000001   0.000000   0.000000  -0.000000
     75       0.000000   0.002117   0.038849   0.000000  -0.005714   0.003369
     76       0.002117   0.061987   0.222474   0.000000  -0.097096   0.057250
     77       0.038849   0.222474   0.453187   0.000000  -0.160291   0.094510
     78       0.000000   0.000000   0.000000   0.034096   0.000000   0.000000
     79       0.005714   0.097096   0.160291   0.000000  -0.127035   0.095005
     80      -0.003369  -0.057250  -0.094510   0.000000   0.095005  -0.021921
     81       0.000000   0.000000   0.000000   0.147901   0.000000   0.000000
     82       0.081654   0.376056   0.491152   0.000000  -0.131521   0.164751
     83      -0.048144  -0.221729  -0.289591   0.000000   0.164751   0.050761
     84       0.000001   0.001083   0.041726   0.000000  -0.001557   0.002460
     85       0.007806   0.059657   0.192901   0.000000  -0.035865   0.056648
     86       0.000000   0.000000   0.002117   0.000000  -0.000000   0.000000
     87       0.000000   0.000179   0.021181   0.000000  -0.000536   0.000050
     88       0.002117   0.021181   0.101055   0.000000  -0.028325   0.002637
     89       0.000000   0.000000   0.000000   0.000090   0.000000   0.000000
     90       0.000000   0.000536   0.028325   0.000000  -0.001518   0.000150
     91      -0.000000  -0.000050  -0.002637   0.000000   0.000150   0.000076
     92       0.000000   0.000000   0.000000   0.013286   0.000000   0.000000
     93       0.008749   0.071045   0.215434   0.000000  -0.083544   0.009014
     94      -0.000814  -0.006613  -0.020054   0.000000   0.009014   0.012447
     95       0.000000   0.000009   0.006251   0.000000  -0.000031  -0.000010
     96       0.000934   0.010445   0.062336   0.000000  -0.014083  -0.004361
     97       0.000000   0.000000   0.000514   0.000000  -0.000000   0.000000
     98       0.000057   0.001040   0.014065   0.000000  -0.001710   0.000440
     99       0.000000   0.003414   0.044366   0.000000   0.008845   0.005139
    100       0.003414   0.080217   0.247538   0.000000   0.121256   0.070452
    101       0.044366   0.247538   0.485301   0.000000   0.171680   0.099749
    102       0.000000   0.000000   0.000000   0.044934   0.000000   0.000000
    103      -0.008845  -0.121256  -0.171680   0.000000  -0.151304  -0.114017
    104      -0.005139  -0.070452  -0.099749   0.000000  -0.114017  -0.021312
    105       0.000000   0.000000   0.000000   0.165120   0.000000   0.000000
    106      -0.089460  -0.401206  -0.504582   0.000000  -0.122042  -0.166845
    107      -0.051977  -0.233107  -0.293169   0.000000  -0.166845   0.068180
    108       0.000002   0.001142   0.042611   0.000000   0.001700   0.002540
    109       0.007991   0.060813   0.195323   0.000000   0.037888   0.056607
                  6          7          8          9         10         11    
      0       0.000000   0.000000  -0.000000   0.000000   0.003447   0.044485
      1       0.000000   0.000000  -0.000000   0.003447   0.080636   0.248074
      2       0.000000  -0.000000   0.000000   0.044485   0.248074   0.485974
      3       0.528959   0.000000   0.000000   0.000000   0.000000   0.000000
      4       0.000000   0.528959  -0.000000   0.000464   0.006330   0.008935
      5       0.000000  -0.000000   0.528959  -0.010309  -0.140709  -0.198606
      6       1.000000   0.000000   0.000000   0.000000   0.000000   0.000000
      7       0.000000   1.000000  -0.000000   0.004658   0.020879   0.026238
      8       0.000000  -0.000000   1.000000  -0.103538  -0.464094  -0.583227
      9       0.000000   0.004658  -0.103538   1.000000   0.191447   0.180314
     10       0.000000   0.020879  -0.464094   0.191447   1.000000   0.761357
     11       0.000000   0.026238  -0.583227   0.180314   0.761357   1.000000
     12       0.165489   0.000000   0.000000   0.000000   0.000000   0.000000
     13       0.000000   0.164713   0.017250   0.000000   0.000000   0.000000
     14       0.000000   0.017250  -0.217958   0.000000   0.000000   0.000000
     15       0.485974   0.000000   0.000000   0.000000   0.000000   0.000000
     16       0.000000   0.484558   0.031489   0.000000   0.000000  -0.000000
     17       0.000000   0.031489  -0.213967   0.000000   0.000000  -0.000000
     18       0.000000   0.005883  -0.009482   0.000000   0.004031   0.046463
     19       0.000000   0.045365  -0.073124   0.004031   0.087697   0.256900
     20       0.000000   0.127082  -0.204840   0.046463   0.256900   0.496997
     21       0.016617   0.000000   0.000000   0.000000   0.000000   0.000000
     22       0.000000  -0.015273   0.051402  -0.010448  -0.132888  -0.178409
     23       0.000000   0.051402  -0.066238   0.005657   0.071954   0.096601
     24       0.116178   0.000000   0.000000   0.000000   0.000000   0.000000
     25       0.000000  -0.022832   0.224066  -0.093701  -0.416357  -0.516811
     26       0.000000   0.224066  -0.244989   0.050735   0.225440   0.279832
     27       0.000000   0.002455  -0.001334   0.000000   0.000000   0.002717
     28       0.000000   0.025371  -0.013783   0.000000   0.000297   0.025941
     29       0.000000   0.111916  -0.060798   0.002717   0.025941   0.114956
     30       0.004645   0.000000   0.000000   0.000000   0.000000   0.000000
     31       0.000000  -0.029229   0.018402  -0.000001  -0.000868  -0.033975
     32       0.000000   0.018402  -0.005352  -0.000000  -0.000017  -0.000671
     33       0.052454   0.000000   0.000000   0.000000   0.000000   0.000000
     34       0.000000  -0.186328   0.129718  -0.010957  -0.084830  -0.239063
     35       0.000000   0.129718  -0.018015  -0.000216  -0.001675  -0.004719
     36       0.000000   0.010957   0.000216   0.000000   0.000000   0.000758
     37       0.000000   0.084830   0.001675   0.000000   0.000022   0.009196
     38       0.000000   0.239063   0.004719   0.000758   0.009196   0.059499
     39       0.016337   0.000000   0.000000   0.000000   0.000000   0.000000
     40       0.000000  -0.096986  -0.002237  -0.000000  -0.000063  -0.011514
     41       0.000000  -0.002237   0.016293  -0.000000  -0.000039  -0.007055
     42       0.114956   0.000000   0.000000   0.000000   0.000000   0.000000
     43       0.000000  -0.382198  -0.009814  -0.002976  -0.029370  -0.120522
     44       0.000000  -0.009814   0.114763  -0.001824  -0.017996  -0.073849
     45       0.000000  -0.049695  -0.115879   0.017590   0.187069   0.333217
     46       0.000000  -0.136079  -0.317311   0.079378   0.395456   0.662298
     47       0.000000   0.001250  -0.003021   0.000002   0.001265   0.044397
     48       0.000000   0.018066  -0.043666   0.008366   0.063141   0.200151
     49       0.000000   0.003190   0.000595   0.000000   0.000000   0.000097
     50       0.000000   0.046258   0.008632   0.000009   0.000222   0.005209
     51       0.000000   0.000002  -0.000001   0.000000   0.000000   0.000008
     52       0.000000   0.000087  -0.000049   0.000000   0.000000   0.000220
     53       0.000000   0.003611  -0.002018   0.000008   0.000220   0.005615
     54       0.000010   0.000000   0.000000   0.000000   0.000000   0.000000
     55       0.000000  -0.000154   0.000092   0.000000  -0.000000  -0.000412
     56       0.000000   0.000092  -0.000041   0.000000   0.000000   0.000078
     57       0.001122   0.000000   0.000000   0.000000   0.000000   0.000000
     58       0.000000  -0.010496   0.006493  -0.000048  -0.001102  -0.017764
     59       0.000000   0.006493  -0.002507   0.000009   0.000208   0.003358
     60       0.000000   0.000000  -0.000000   0.000000   0.000000   0.000000
     61       0.000000   0.000001  -0.000000   0.000000   0.000000   0.000001
     62       0.000000   0.000190  -0.000061   0.000000   0.000001   0.000139
     63       0.000000   0.000000   0.000000   0.000000   0.000000   0.000000
     64       0.000000  -0.000002   0.000001   0.000000   0.000000  -0.000001
     65       0.000000   0.000001  -0.000000   0.000000   0.000000   0.000000
     66       0.000045   0.000000   0.000000   0.000000   0.000000   0.000000
     67       0.000000  -0.000766   0.000258  -0.000000  -0.000004  -0.000586
     68       0.000000   0.000258  -0.000038   0.000000   0.000000   0.000022
     69       0.000000   0.000001  -0.000000   0.000000   0.000000   0.000000
     70       0.000000   0.000304  -0.000031   0.000000   0.000000   0.000075
     71       0.000000   0.000003  -0.000003   0.000000   0.000000   0.000050
     72       0.000000   0.000768  -0.000669   0.000004   0.000119   0.003489
     73       0.000000   0.000000  -0.000000   0.000000   0.000000   0.000000
     74       0.000000   0.000005  -0.000002   0.000000   0.000000   0.000006
     75       0.000000  -0.081654   0.048144   0.000000   0.000000   0.001935
     76       0.000000  -0.376056   0.221729   0.000000   0.000149   0.019690
     77       0.000000  -0.491152   0.289591   0.001935   0.019690   0.096477
     78       0.147901   0.000000   0.000000   0.000000   0.000000   0.000000
     79       0.000000  -0.131521   0.164751   0.000000   0.000238   0.014034
     80       0.000000   0.164751   0.050761  -0.000000  -0.000385  -0.022685
     81       0.453187   0.000000   0.000000   0.000000   0.000000   0.000000
     82       0.000000  -0.079111   0.313852   0.004268   0.035256   0.109768
     83       0.000000   0.313852   0.268135  -0.006898  -0.056989  -0.177433
     84       0.000000  -0.066946   0.105741   0.000000   0.000000   0.000570
     85       0.000000  -0.183996   0.290619   0.000064   0.001144   0.014956
     86       0.000000  -0.008749   0.000814   0.000000   0.000000   0.000263
     87       0.000000  -0.071045   0.006613   0.000000   0.000003   0.003890
     88       0.000000  -0.215434   0.020054   0.000263   0.003890   0.034495
     89       0.013286   0.000000   0.000000   0.000000   0.000000   0.000000
     90       0.000000  -0.083544   0.009014   0.000000   0.000008   0.005189
     91       0.000000   0.009014   0.012447  -0.000000  -0.000005  -0.003320
     92       0.101055   0.000000   0.000000   0.000000   0.000000   0.000000
     93       0.000000  -0.358219   0.042752   0.001116   0.013431   0.075400
     94       0.000000   0.042752   0.097075  -0.000714  -0.008593  -0.048243
     95       0.000000  -0.023220  -0.007190   0.000000   0.000010   0.006306
     96       0.000000  -0.137903  -0.042700   0.000943   0.010528   0.062658
     97       0.000000  -0.002397   0.000617   0.000000   0.000000   0.000029
     98       0.000000  -0.039105   0.010063   0.000002   0.000073   0.002554
     99       0.000000   0.089460   0.051977   0.000000   0.000000   0.002993
    100       0.000000   0.401206   0.233107   0.000000   0.000361   0.028052
    101       0.000000   0.504582   0.293169   0.002993   0.028052   0.120822
    102       0.165120   0.000000   0.000000   0.000000   0.000000   0.000000
    103       0.000000  -0.122042  -0.166845  -0.000001  -0.000501  -0.017442
    104       0.000000  -0.166845   0.068180  -0.000001  -0.000916  -0.031925
    105       0.485301   0.000000   0.000000   0.000000   0.000000   0.000000
    106       0.000000  -0.039328  -0.304817  -0.005720  -0.043472  -0.119099
    107       0.000000  -0.304817   0.308198  -0.010469  -0.079568  -0.217988
    108       0.000000   0.070820   0.105811   0.000000   0.000000   0.000738
    109       0.000000   0.192988   0.288339   0.000085   0.001453   0.017442
                 12         13         14         15         16         17    
      0       0.000000  -0.000464   0.010309   0.000000  -0.004658   0.103538
      1       0.000000  -0.006330   0.140709   0.000000  -0.020879   0.464094
      2       0.000000  -0.008935   0.198606   0.000000  -0.026238   0.583227
      3       0.045186   0.000000   0.000000   0.165489   0.000000   0.000000
      4       0.000000   0.044654   0.011829   0.000000   0.164713   0.017250
      5       0.000000   0.011829  -0.217757   0.000000   0.017250  -0.217958
      6       0.165489   0.000000   0.000000   0.485974   0.000000   0.000000
      7       0.000000   0.164713   0.017250   0.000000   0.484558   0.031489
      8       0.000000   0.017250  -0.217958   0.000000   0.031489  -0.213967
      9       0.000000   0.000000   0.000000   0.000000   0.000000   0.000000
     10       0.000000   0.000000   0.000000   0.000000   0.000000   0.000000
     11       0.000000   0.000000   0.000000   0.000000  -0.000000  -0.000000
     12       1.000000   0.000000   0.000000   0.528959   0.000000   0.000000
     13       0.000000   1.000000   0.000000   0.000000   0.528959   0.000000
     14       0.000000   0.000000   1.000000   0.000000   0.000000   0.528959
     15       0.528959   0.000000   0.000000   1.000000   0.000000   0.000000
     16       0.000000   0.528959   0.000000   0.000000   1.000000   0.000000
     17       0.000000   0.000000   0.528959   0.000000   0.000000   1.000000
     18       0.000000   0.010448  -0.005657   0.000000   0.093701  -0.050735
     19       0.000000   0.132888  -0.071954   0.000000   0.416357  -0.225440
     20       0.000000   0.178409  -0.096601   0.000000   0.516811  -0.279832
     21       0.049475   0.000000   0.000000   0.171569   0.000000   0.000000
     22       0.000000  -0.166996   0.117210   0.000000  -0.126905   0.161612
     23       0.000000   0.117210  -0.013989   0.000000   0.161612   0.084063
     24       0.171569   0.000000   0.000000   0.496997   0.000000   0.000000
     25       0.000000  -0.126905   0.161612   0.000000  -0.040417   0.290988
     26       0.000000   0.161612   0.084063   0.000000   0.290988   0.339439
     27       0.000000   0.000001   0.000000   0.000000   0.010957   0.000216
     28       0.000000   0.000868   0.000017   0.000000   0.084830   0.001675
     29       0.000000   0.033975   0.000671   0.000000   0.239063   0.004719
     30       0.000149   0.000000   0.000000   0.016337   0.000000   0.000000
     31       0.000000  -0.002392  -0.000050   0.000000  -0.096986  -0.002237
     32       0.000000  -0.000050   0.000148   0.000000  -0.002237   0.016293
     33       0.016337   0.000000   0.000000   0.114956   0.000000   0.000000
     34       0.000000  -0.096986  -0.002237   0.000000  -0.382198  -0.009814
     35       0.000000  -0.002237   0.016293   0.000000  -0.009814   0.114763
     36       0.000000   0.000000   0.000000   0.000000   0.002976   0.001824
     37       0.000000   0.000063   0.000039   0.000000   0.029370   0.017996
     38       0.000000   0.011514   0.007055   0.000000   0.120522   0.073849
     39       0.000011   0.000000   0.000000   0.005684   0.000000   0.000000
     40       0.000000  -0.000169  -0.000111   0.000000  -0.031685  -0.022898
     41       0.000000  -0.000111  -0.000057   0.000000  -0.022898  -0.008346
     42       0.005684   0.000000   0.000000   0.059499   0.000000   0.000000
     43       0.000000  -0.031685  -0.022898   0.000000  -0.184631  -0.149588
     44       0.000000  -0.022898  -0.008346   0.000000  -0.149588  -0.032160
     45       0.000000  -0.240588  -0.151945   0.000000  -0.423720  -0.267604
     46       0.000000  -0.197923  -0.125000   0.000000  -0.499262  -0.315313
     47       0.000000   0.001949  -0.002740   0.000000   0.076333  -0.107288
     48       0.000000   0.040727  -0.057243   0.000000   0.204567  -0.287523
     49       0.000000   0.000000   0.000000   0.000000   0.000442   0.000273
     50       0.000000   0.000351   0.000217   0.000000   0.014125   0.008729
     51       0.000000   0.000000   0.000000   0.000000   0.000048  -0.000009
     52       0.000000   0.000000  -0.000000   0.000000   0.001102  -0.000208
     53       0.000000   0.000412  -0.000078   0.000000   0.017764  -0.003358
     54       0.000000   0.000000   0.000000   0.000130   0.000000   0.000000
     55       0.000000  -0.000000   0.000000   0.000000  -0.001951   0.000393
     56       0.000000   0.000000  -0.000000   0.000000   0.000393   0.000056
     57       0.000130   0.000000   0.000000   0.005615   0.000000   0.000000
     58       0.000000  -0.001951   0.000393   0.000000  -0.050578   0.010622
     59       0.000000   0.000393   0.000056   0.000000   0.010622   0.003608
     60       0.000000   0.000000   0.000000   0.000000   0.000000  -0.000000
     61       0.000000   0.000000   0.000000   0.000000   0.000004  -0.000000
     62       0.000000   0.000001  -0.000000   0.000000   0.000586  -0.000022
     63       0.000000   0.000000   0.000000   0.000000   0.000000   0.000000
     64       0.000000   0.000000   0.000000   0.000000  -0.000010   0.000000
     65       0.000000   0.000000   0.000000   0.000000   0.000000   0.000000
     66       0.000000   0.000000   0.000000   0.000139   0.000000   0.000000
     67       0.000000  -0.000010   0.000000   0.000000  -0.002327   0.000092
     68       0.000000   0.000000   0.000000   0.000000   0.000092   0.000136
     69       0.000000   0.000000   0.000000   0.000000   0.000001   0.000000
     70       0.000000   0.000001   0.000000   0.000000   0.000318   0.000055
     71       0.000000   0.000000  -0.000000   0.000000   0.000247  -0.000122
     72       0.000000   0.000205  -0.000101   0.000000   0.010340  -0.005117
     73       0.000000   0.000000   0.000000   0.000000   0.000000  -0.000000
     74       0.000000   0.000000  -0.000000   0.000000   0.000026  -0.000004
     75       0.000000  -0.000000   0.000000   0.000000  -0.004268   0.006898
     76       0.000000  -0.000238   0.000385   0.000000  -0.035256   0.056989
     77       0.000000  -0.014034   0.022685   0.000000  -0.109768   0.177433
     78       0.000075   0.000000   0.000000   0.012335   0.000000   0.000000
     79       0.000000  -0.000307   0.000617   0.000000  -0.013268   0.041385
     80       0.000000   0.000617  -0.000922   0.000000   0.041385  -0.054562
     81       0.012335   0.000000   0.000000   0.096477   0.000000   0.000000
     82       0.000000  -0.013268   0.041385   0.000000  -0.028413   0.201877
     83       0.000000   0.041385  -0.054562   0.000000   0.201877  -0.229846
     84       0.000000  -0.000000   0.000000   0.000000  -0.000962   0.002549
     85       0.000000  -0.000681   0.001806   0.000000  -0.015046   0.039882
     86       0.000000  -0.000000   0.000000   0.000000  -0.001116   0.000714
     87       0.000000  -0.000008   0.000005   0.000000  -0.013431   0.008593
     88       0.000000  -0.005189   0.003320   0.000000  -0.075400   0.048243
     89       0.000001   0.000000   0.000000   0.002374   0.000000   0.000000
     90       0.000000  -0.000023   0.000016   0.000000  -0.015786   0.011619
     91       0.000000   0.000016  -0.000009   0.000000   0.011619  -0.005061
     92       0.002374   0.000000   0.000000   0.034495   0.000000   0.000000
     93       0.000000  -0.015786   0.011619   0.000000  -0.130318   0.105451
     94       0.000000   0.011619  -0.005061   0.000000   0.105451  -0.032976
     95       0.000000  -0.000032   0.000007   0.000000  -0.023975   0.005029
     96       0.000000  -0.014532   0.003048   0.000000  -0.141886   0.029763
     97       0.000000  -0.000000   0.000000   0.000000  -0.000140   0.000093
     98       0.000000  -0.000120   0.000080   0.000000  -0.007233   0.004789
     99       0.000000   0.000001   0.000001   0.000000   0.005720   0.010469
    100       0.000000   0.000501   0.000916   0.000000   0.043472   0.079568
    101       0.000000   0.017442   0.031925   0.000000   0.119099   0.217988
    102       0.000182   0.000000   0.000000   0.017695   0.000000   0.000000
    103       0.000000  -0.000513  -0.001272   0.000000  -0.009885  -0.050479
    104       0.000000  -0.001272  -0.002146   0.000000  -0.050479  -0.074698
    105       0.017695   0.000000   0.000000   0.120822   0.000000   0.000000
    106       0.000000  -0.009885  -0.050479   0.000000   0.003421  -0.214880
    107       0.000000  -0.050479  -0.074698   0.000000  -0.214880  -0.272477
    108       0.000000   0.000000   0.000000   0.000000   0.001158   0.003261
    109       0.000000   0.000807   0.002272   0.000000   0.016323   0.045981
                 18         19         20         21         22         23    
      0       0.000000   0.000000   0.002774   0.000000  -0.000000   0.000001
      1       0.000000   0.000310   0.026376   0.000000  -0.000476   0.000767
      2       0.002774   0.026376   0.116178   0.000000  -0.018176   0.029298
      3       0.000000   0.000000   0.000000   0.000156   0.000000   0.000000
      4       0.000000   0.000476   0.018176   0.000000  -0.000577   0.001182
      5      -0.000001  -0.000767  -0.029298   0.000000   0.001182  -0.001749
      6       0.000000   0.000000   0.000000   0.016617   0.000000   0.000000
      7       0.005883   0.045365   0.127082   0.000000  -0.015273   0.051402
      8      -0.009482  -0.073124  -0.204840   0.000000   0.051402  -0.066238
      9       0.000000   0.004031   0.046463   0.000000  -0.010448   0.005657
     10       0.004031   0.087697   0.256900   0.000000  -0.132888   0.071954
     11       0.046463   0.256900   0.496997   0.000000  -0.178409   0.096601
     12       0.000000   0.000000   0.000000   0.049475   0.000000   0.000000
     13       0.010448   0.132888   0.178409   0.000000  -0.166996   0.117210
     14      -0.005657  -0.071954  -0.096601   0.000000   0.117210  -0.013989
     15       0.000000   0.000000   0.000000   0.171569   0.000000   0.000000
     16       0.093701   0.416357   0.516811   0.000000  -0.126905   0.161612
     17      -0.050735  -0.225440  -0.279832   0.000000   0.161612   0.084063
     18       1.000000   0.191447   0.180314   0.000000  -0.000000   0.000000
     19       0.191447   1.000000   0.761357   0.000000  -0.000000   0.000000
     20       0.180314   0.761357   1.000000   0.000000  -0.000000   0.000000
     21       0.000000   0.000000   0.000000   1.000000   0.000000   0.000000
     22      -0.000000  -0.000000  -0.000000   0.000000   1.000000  -0.000000
     23       0.000000   0.000000   0.000000   0.000000  -0.000000   1.000000
     24       0.000000   0.000000   0.000000   0.528959   0.000000   0.000000
     25      -0.000000  -0.000000   0.000000   0.000000   0.528959  -0.000000
     26       0.000000   0.000000  -0.000000   0.000000  -0.000000   0.528959
     27       0.000000   0.003414   0.044366   0.000000   0.008845   0.005139
     28       0.003414   0.080217   0.247538   0.000000   0.121256   0.070452
     29       0.044366   0.247538   0.485301   0.000000   0.171680   0.099749
     30       0.000000   0.000000   0.000000   0.044934   0.000000   0.000000
     31      -0.008845  -0.121256  -0.171680   0.000000  -0.151304  -0.114017
     32      -0.005139  -0.070452  -0.099749   0.000000  -0.114017  -0.021312
     33       0.000000   0.000000   0.000000   0.165120   0.000000   0.000000
     34      -0.089460  -0.401206  -0.504582   0.000000  -0.122042  -0.166845
     35      -0.051977  -0.233107  -0.293169   0.000000  -0.166845   0.068180
     36       0.000000   0.000000   0.002993   0.000000   0.000001   0.000001
     37       0.000000   0.000361   0.028052   0.000000   0.000501   0.000916
     38       0.002993   0.028052   0.120822   0.000000   0.017442   0.031925
     39       0.000000   0.000000   0.000000   0.000182   0.000000   0.000000
     40      -0.000001  -0.000501  -0.017442   0.000000  -0.000513  -0.001272
     41      -0.000001  -0.000916  -0.031925   0.000000  -0.001272  -0.002146
     42       0.000000   0.000000   0.000000   0.017695   0.000000   0.000000
     43      -0.005720  -0.043472  -0.119099   0.000000  -0.009885  -0.050479
     44      -0.010469  -0.079568  -0.217988   0.000000  -0.050479  -0.074698
     45       0.000002   0.001292   0.044773   0.000000  -0.003427   0.000133
     46       0.008445   0.063629   0.201156   0.000000  -0.070646   0.002737
     47       0.017481   0.186451   0.332763   0.000000   0.005388  -0.283757
     48       0.079258   0.394967   0.661762   0.000000   0.004443  -0.233980
     49       0.000000   0.000000   0.000728   0.000000   0.000000   0.000000
     50       0.000084   0.001435   0.017302   0.000000   0.001453   0.001890
     51       0.000000   0.000000   0.002273   0.000000   0.000000  -0.000000
     52       0.000000   0.000207   0.022445   0.000000   0.000617  -0.000010
     53       0.002273   0.022445   0.104848   0.000000   0.029931  -0.000492
     54       0.000000   0.000000   0.000000   0.000104   0.000000   0.000000
     55      -0.000000  -0.000617  -0.029931   0.000000  -0.001740   0.000030
     56       0.000000   0.000010   0.000492   0.000000   0.000030   0.000103
     57       0.000000   0.000000   0.000000   0.014095   0.000000   0.000000
     58      -0.009360  -0.074978  -0.222645   0.000000  -0.087832   0.001676
     59       0.000154   0.001233   0.003661   0.000000   0.001676   0.014068
     60       0.000000   0.000000   0.000009   0.000000   0.000000   0.000000
     61       0.000000   0.000000   0.000246   0.000000   0.000000   0.000000
     62       0.000009   0.000246   0.006026   0.000000   0.000462   0.000059
     63       0.000000   0.000000   0.000000   0.000000   0.000000   0.000000
     64       0.000000  -0.000000  -0.000462   0.000000  -0.000000  -0.000000
     65       0.000000  -0.000000  -0.000059   0.000000  -0.000000   0.000000
     66       0.000000   0.000000   0.000000   0.000146   0.000000   0.000000
     67      -0.000055  -0.001236  -0.019110   0.000000  -0.002196  -0.000300
     68      -0.000007  -0.000158  -0.002444   0.000000  -0.000300   0.000107
     69       0.000000   0.000000   0.000020   0.000000   0.000000   0.000000
     70       0.000002   0.000052   0.002054   0.000000   0.000097   0.000038
     71       0.000000   0.000041   0.011237   0.000000   0.000120  -0.000056
     72       0.001800   0.017914   0.088387   0.000000   0.021585  -0.010167
     73       0.000000   0.000000   0.000003   0.000000   0.000000   0.000000
     74       0.000000   0.000008   0.000598   0.000000   0.000017  -0.000001
     75       0.000000   0.000000   0.000007   0.000000   0.000000   0.000000
     76       0.000000   0.000000   0.000195   0.000000  -0.000000   0.000000
     77       0.000007   0.000195   0.005215   0.000000  -0.000252   0.000278
     78       0.000000   0.000000   0.000000   0.000000   0.000000   0.000000
     79       0.000000   0.000000   0.000252   0.000000  -0.000000   0.000000
     80       0.000000  -0.000000  -0.000278   0.000000   0.000000  -0.000000
     81       0.000000   0.000000   0.000000   0.000116   0.000000   0.000000
     82       0.000029   0.000675   0.011356   0.000000  -0.000761   0.000967
     83      -0.000031  -0.000744  -0.012527   0.000000   0.000967  -0.000951
     84       0.000000   0.000000   0.000003   0.000000   0.000000   0.000000
     85       0.000000   0.000008   0.000596   0.000000  -0.000009   0.000014
     86       0.000000   0.000000   0.000000   0.000000   0.000000   0.000000
     87       0.000000   0.000000   0.000010   0.000000   0.000000   0.000000
     88       0.000000   0.000010   0.000803   0.000000  -0.000019   0.000011
     89       0.000000   0.000000   0.000000   0.000000   0.000000   0.000000
     90       0.000000   0.000000   0.000019   0.000000   0.000000   0.000000
     91       0.000000   0.000000  -0.000011   0.000000   0.000000   0.000000
     92       0.000000   0.000000   0.000000   0.000006   0.000000   0.000000
     93       0.000001   0.000051   0.002592   0.000000  -0.000091   0.000059
     94      -0.000001  -0.000031  -0.001576   0.000000   0.000059  -0.000030
     95       0.000000   0.000000   0.000025   0.000000  -0.000000   0.000000
     96       0.000002   0.000063   0.002316   0.000000  -0.000119   0.000037
     97       0.000000   0.000000   0.000000   0.000000   0.000000   0.000000
     98       0.000000   0.000000   0.000024   0.000000  -0.000000   0.000000
     99       0.000000   0.000000   0.000785   0.000000  -0.000000   0.000000
    100       0.000000   0.000024   0.009466   0.000000  -0.000002   0.000080
    101       0.000785   0.009466   0.060602   0.000000  -0.000317   0.013858
    102       0.000000   0.000000   0.000000   0.000012   0.000000   0.000000
    103       0.000000   0.000002   0.000317   0.000000   0.000012   0.000006
    104      -0.000000  -0.000080  -0.013858   0.000000   0.000006  -0.000253
    105       0.000000   0.000000   0.000000   0.005854   0.000000   0.000000
    106       0.000082   0.000808   0.003280   0.000000   0.005826   0.001202
    107      -0.003605  -0.035330  -0.143460   0.000000   0.001202  -0.046710
    108       0.000000   0.000000   0.000101   0.000000  -0.000000   0.000000
    109       0.000009   0.000230   0.005322   0.000000  -0.000009   0.000426
                 24         25         26         27         28         29    
      0       0.000000  -0.005883   0.009482   0.000000   0.000000   0.000594
      1       0.000000  -0.045365   0.073124   0.000000   0.000014   0.007538
      2       0.000000  -0.127082   0.204840   0.000594   0.007538   0.052454
      3       0.016617   0.000000   0.000000   0.000000   0.000000   0.000000
      4       0.000000  -0.015273   0.051402   0.000000   0.000041   0.009911
      5       0.000000   0.051402  -0.066238  -0.000000  -0.000022  -0.005384
      6       0.116178   0.000000   0.000000   0.000000   0.000000   0.000000
      7       0.000000  -0.022832   0.224066   0.002455   0.025371   0.111916
      8       0.000000   0.224066  -0.244989  -0.001334  -0.013783  -0.060798
      9       0.000000  -0.093701   0.050735   0.000000   0.000000   0.002717
     10       0.000000  -0.416357   0.225440   0.000000   0.000297   0.025941
     11       0.000000  -0.516811   0.279832   0.002717   0.025941   0.114956
     12       0.171569   0.000000   0.000000   0.000000   0.000000   0.000000
     13       0.000000  -0.126905   0.161612   0.000001   0.000868   0.033975
     14       0.000000   0.161612   0.084063   0.000000   0.000017   0.000671
     15       0.496997   0.000000   0.000000   0.000000   0.000000   0.000000
     16       0.000000  -0.040417   0.290988   0.010957   0.084830   0.239063
     17       0.000000   0.290988   0.339439   0.000216   0.001675   0.004719
     18       0.000000  -0.000000   0.000000   0.000000   0.003414   0.044366
     19       0.000000  -0.000000   0.000000   0.003414   0.080217   0.247538
     20       0.000000   0.000000  -0.000000   0.044366   0.247538   0.485301
     21       0.528959   0.000000   0.000000   0.000000   0.000000   0.000000
     22       0.000000   0.528959  -0.000000   0.008845   0.121256   0.171680
     23       0.000000  -0.000000   0.528959   0.005139   0.070452   0.099749
     24       1.000000   0.000000   0.000000   0.000000   0.000000   0.000000
     25       0.000000   1.000000  -0.000000   0.089460   0.401206   0.504582
     26       0.000000  -0.000000   1.000000   0.051977   0.233107   0.293169
     27       0.000000   0.089460   0.051977   1.000000   0.191447   0.180314
     28       0.000000   0.401206   0.233107   0.191447   1.000000   0.761357
     29       0.000000   0.504582   0.293169   0.180314   0.761357   1.000000
     30       0.165120   0.000000   0.000000   0.000000   0.000000   0.000000
     31       0.000000  -0.122042  -0.166845  -0.000000  -0.000000  -0.000000
     32       0.000000  -0.166845   0.068180   0.000000   0.000000   0.000000
     33       0.485301   0.000000   0.000000   0.000000   0.000000   0.000000
     34       0.000000  -0.039328  -0.304817  -0.000000  -0.000000   0.000000
     35       0.000000  -0.304817   0.308198   0.000000   0.000000  -0.000000
     36       0.000000   0.005720   0.010469   0.000000   0.003447   0.044485
     37       0.000000   0.043472   0.079568   0.003447   0.080636   0.248074
     38       0.000000   0.119099   0.217988   0.044485   0.248074   0.485974
     39       0.017695   0.000000   0.000000   0.000000   0.000000   0.000000
     40       0.000000  -0.009885  -0.050479   0.000464   0.006330   0.008935
     41       0.000000  -0.050479  -0.074698  -0.010309  -0.140709  -0.198606
     42       0.120822   0.000000   0.000000   0.000000   0.000000   0.000000
     43       0.000000   0.003421  -0.214880   0.004658   0.020879   0.026238
     44       0.000000  -0.214880  -0.272477  -0.103538  -0.464094  -0.583227
     45       0.000000  -0.132481   0.005132   0.000000   0.000000   0.000688
     46       0.000000  -0.353824   0.013707   0.000079   0.001363   0.016736
     47       0.000000   0.009511  -0.500867   0.000002   0.001142   0.042611
     48       0.000000   0.011213  -0.590492   0.007991   0.060813   0.195323
     49       0.000000   0.002083   0.002709   0.000001   0.001108   0.042105
     50       0.000000   0.029529   0.038411   0.007885   0.060153   0.193942
     51       0.000000   0.009360  -0.000154   0.000000   0.002117   0.038849
     52       0.000000   0.074978  -0.001233   0.002117   0.061987   0.222474
     53       0.000000   0.222645  -0.003661   0.038849   0.222474   0.453187
     54       0.014095   0.000000   0.000000   0.000000   0.000000   0.000000
     55       0.000000  -0.087832   0.001676  -0.005714  -0.097096  -0.160291
     56       0.000000   0.001676   0.014068   0.003369   0.057250   0.094510
     57       0.104848   0.000000   0.000000   0.000000   0.000000   0.000000
     58       0.000000  -0.367940   0.007773  -0.081654  -0.376056  -0.491152
     59       0.000000   0.007773   0.104720   0.048144   0.221729   0.289591
     60       0.000000   0.000055   0.000007   0.000000   0.000000   0.002117
     61       0.000000   0.001236   0.000158   0.000000   0.000179   0.021181
     62       0.000000   0.019110   0.002444   0.002117   0.021181   0.101055
     63       0.000146   0.000000   0.000000   0.000000   0.000000   0.000000
     64       0.000000  -0.002196  -0.000300  -0.000000  -0.000536  -0.028325
     65       0.000000  -0.000300   0.000107   0.000000   0.000050   0.002637
     66       0.006026   0.000000   0.000000   0.000000   0.000000   0.000000
     67       0.000000  -0.054585  -0.007752  -0.008749  -0.071045  -0.215434
     68       0.000000  -0.007752   0.005034   0.000814   0.006613   0.020054
     69       0.000000   0.000110   0.000044   0.000000   0.000009   0.006251
     70       0.000000   0.006608   0.002606   0.000934   0.010445   0.062336
     71       0.000000   0.036977  -0.017417   0.000001   0.001083   0.041726
     72       0.000000   0.173136  -0.081551   0.007806   0.059657   0.192901
     73       0.000000   0.000016  -0.000001   0.000000   0.000000   0.000514
     74       0.000000   0.002265  -0.000079   0.000057   0.001040   0.014065
     75       0.000000  -0.000029   0.000031   0.000000   0.000000   0.000000
     76       0.000000  -0.000675   0.000744   0.000000   0.000000   0.000017
     77       0.000000  -0.011356   0.012527   0.000000   0.000017   0.001122
     78       0.000116   0.000000   0.000000   0.000000   0.000000   0.000000
     79       0.000000  -0.000761   0.000967   0.000000   0.000000   0.000032
     80       0.000000   0.000967  -0.000951   0.000000   0.000000  -0.000018
     81       0.005215   0.000000   0.000000   0.000000   0.000000   0.000000
     82       0.000000  -0.019514   0.027279   0.000002   0.000087   0.003611
     83       0.000000   0.027279  -0.024877  -0.000001  -0.000049  -0.002018
     84       0.000000  -0.000009   0.000014   0.000000   0.000000   0.000001
     85       0.000000  -0.001198   0.001912   0.000000   0.000002   0.000254
     86       0.000000  -0.000001   0.000001   0.000000   0.000000   0.000000
     87       0.000000  -0.000051   0.000031   0.000000   0.000000   0.000000
     88       0.000000  -0.002592   0.001576   0.000000   0.000000   0.000045
     89       0.000006   0.000000   0.000000   0.000000   0.000000   0.000000
     90       0.000000  -0.000091   0.000059   0.000000   0.000000   0.000000
     91       0.000000   0.000059  -0.000030   0.000000   0.000000  -0.000000
     92       0.000803   0.000000   0.000000   0.000000   0.000000   0.000000
     93       0.000000  -0.007557   0.005084   0.000000   0.000001   0.000190
     94       0.000000   0.005084  -0.002288  -0.000000  -0.000000  -0.000061
     95       0.000000  -0.000137   0.000043   0.000000   0.000000   0.000000
     96       0.000000  -0.007571   0.002360   0.000000   0.000000   0.000071
     97       0.000000  -0.000000   0.000000   0.000000   0.000000   0.000000
     98       0.000000  -0.000091   0.000057   0.000000   0.000000   0.000001
     99       0.000000  -0.000082   0.003605   0.000000   0.000000   0.002774
    100       0.000000  -0.000808   0.035330   0.000000   0.000310   0.026376
    101       0.000000  -0.003280   0.143460   0.002774   0.026376   0.116178
    102       0.005854   0.000000   0.000000   0.000000   0.000000   0.000000
    103       0.000000   0.005826   0.001202   0.000000   0.000476   0.018176
    104       0.000000   0.001202  -0.046710  -0.000001  -0.000767  -0.029298
    105       0.060602   0.000000   0.000000   0.000000   0.000000   0.000000
    106       0.000000   0.060424   0.007765   0.005883   0.045365   0.127082
    107       0.000000   0.007765  -0.279007  -0.009482  -0.073124  -0.204840
    108       0.000000  -0.000012   0.000538   0.000000   0.000000   0.000694
    109       0.000000  -0.000369   0.016928   0.000080   0.001373   0.016817
                 30         31         32         33         34         35    
      0       0.000000  -0.000000   0.000000   0.000000  -0.002455   0.001334
      1       0.000000  -0.000041   0.000022   0.000000  -0.025371   0.013783
      2       0.000000  -0.009911   0.005384   0.000000  -0.111916   0.060798
      3       0.000007   0.000000   0.000000   0.004645   0.000000   0.000000
      4       0.000000  -0.000115   0.000066   0.000000  -0.029229   0.018402
      5       0.000000   0.000066  -0.000029   0.000000   0.018402  -0.005352
      6       0.004645   0.000000   0.000000   0.052454   0.000000   0.000000
      7       0.000000  -0.029229   0.018402   0.000000  -0.186328   0.129718
      8       0.000000   0.018402  -0.005352   0.000000   0.129718  -0.018015
      9       0.000000  -0.000001  -0.000000   0.000000  -0.010957  -0.000216
     10       0.000000  -0.000868  -0.000017   0.000000  -0.084830  -0.001675
     11       0.000000  -0.033975  -0.000671   0.000000  -0.239063  -0.004719
     12       0.000149   0.000000   0.000000   0.016337   0.000000   0.000000
     13       0.000000  -0.002392  -0.000050   0.000000  -0.096986  -0.002237
     14       0.000000  -0.000050   0.000148   0.000000  -0.002237   0.016293
     15       0.016337   0.000000   0.000000   0.114956   0.000000   0.000000
     16       0.000000  -0.096986  -0.002237   0.000000  -0.382198  -0.009814
     17       0.000000  -0.002237   0.016293   0.000000  -0.009814   0.114763
     18       0.000000  -0.008845  -0.005139   0.000000  -0.089460  -0.051977
     19       0.000000  -0.121256  -0.070452   0.000000  -0.401206  -0.233107
     20       0.000000  -0.171680  -0.099749   0.000000  -0.504582  -0.293169
     21       0.044934   0.000000   0.000000   0.165120   0.000000   0.000000
     22       0.000000  -0.151304  -0.114017   0.000000  -0.122042  -0.166845
     23       0.000000  -0.114017  -0.021312   0.000000  -0.166845   0.068180
     24       0.165120   0.000000   0.000000   0.485301   0.000000   0.000000
     25       0.000000  -0.122042  -0.166845   0.000000  -0.039328  -0.304817
     26       0.000000  -0.166845   0.068180   0.000000  -0.304817   0.308198
     27       0.000000  -0.000000   0.000000   0.000000  -0.000000   0.000000
     28       0.000000  -0.000000   0.000000   0.000000  -0.000000   0.000000
     29       0.000000  -0.000000   0.000000   0.000000   0.000000  -0.000000
     30       1.000000   0.000000   0.000000   0.528959   0.000000   0.000000
     31       0.000000   1.000000  -0.000000   0.000000   0.528959  -0.000000
     32       0.000000  -0.000000   1.000000   0.000000  -0.000000   0.528959
     33       0.528959   0.000000   0.000000   1.000000   0.000000   0.000000
     34       0.000000   0.528959  -0.000000   0.000000   1.000000  -0.000000
     35       0.000000  -0.000000   0.528959   0.000000  -0.000000   1.000000
     36       0.000000  -0.000464   0.010309   0.000000  -0.004658   0.103538
     37       0.000000  -0.006330   0.140709   0.000000  -0.020879   0.464094
     38       0.000000  -0.008935   0.198606   0.000000  -0.026238   0.583227
     39       0.045186   0.000000   0.000000   0.165489   0.000000   0.000000
     40       0.000000   0.044654   0.011829   0.000000   0.164713   0.017250
     41       0.000000   0.011829  -0.217757   0.000000   0.017250  -0.217958
     42       0.165489   0.000000   0.000000   0.485974   0.000000   0.000000
     43       0.000000   0.164713   0.017250   0.000000   0.484558   0.031489
     44       0.000000   0.017250  -0.217958   0.000000   0.031489  -0.213967
     45       0.000000  -0.000000  -0.000000   0.000000  -0.003190  -0.000595
     46       0.000000  -0.002233  -0.000417   0.000000  -0.046258  -0.008632
     47       0.000000  -0.001700  -0.002540   0.000000  -0.070820  -0.105811
     48       0.000000  -0.037888  -0.056607   0.000000  -0.192988  -0.288339
     49       0.000000   0.001172   0.002732   0.000000   0.049695   0.115879
     50       0.000000   0.026607   0.062042   0.000000   0.136079   0.317311
     51       0.000000   0.005714  -0.003369   0.000000   0.081654  -0.048144
     52       0.000000   0.097096  -0.057250   0.000000   0.376056  -0.221729
     53       0.000000   0.160291  -0.094510   0.000000   0.491152  -0.289591
     54       0.034096   0.000000   0.000000   0.147901   0.000000   0.000000
     55       0.000000  -0.127035   0.095005   0.000000  -0.131521   0.164751
     56       0.000000   0.095005  -0.021921   0.000000   0.164751   0.050761
     57       0.147901   0.000000   0.000000   0.453187   0.000000   0.000000
     58       0.000000  -0.131521   0.164751   0.000000  -0.079111   0.313852
     59       0.000000   0.164751   0.050761   0.000000   0.313852   0.268135
     60       0.000000   0.000000  -0.000000   0.000000   0.008749  -0.000814
     61       0.000000   0.000536  -0.000050   0.000000   0.071045  -0.006613
     62       0.000000   0.028325  -0.002637   0.000000   0.215434  -0.020054
     63       0.000090   0.000000   0.000000   0.013286   0.000000   0.000000
     64       0.000000  -0.001518   0.000150   0.000000  -0.083544   0.009014
     65       0.000000   0.000150   0.000076   0.000000   0.009014   0.012447
     66       0.013286   0.000000   0.000000   0.101055   0.000000   0.000000
     67       0.000000  -0.083544   0.009014   0.000000  -0.358219   0.042752
     68       0.000000   0.009014   0.012447   0.000000   0.042752   0.097075
     69       0.000000   0.000031   0.000010   0.000000   0.023220   0.007190
     70       0.000000   0.014083   0.004361   0.000000   0.137903   0.042700
     71       0.000000   0.001557  -0.002460   0.000000   0.066946  -0.105741
     72       0.000000   0.035865  -0.056648   0.000000   0.183996  -0.290619
     73       0.000000   0.000000  -0.000000   0.000000   0.002397  -0.000617
     74       0.000000   0.001710  -0.000440   0.000000   0.039105  -0.010063
     75       0.000000   0.000000   0.000000   0.000000  -0.000002   0.000001
     76       0.000000   0.000000   0.000000   0.000000  -0.000087   0.000049
     77       0.000000  -0.000032   0.000018   0.000000  -0.003611   0.002018
     78       0.000000   0.000000   0.000000   0.000010   0.000000   0.000000
     79       0.000000   0.000000   0.000000   0.000000  -0.000154   0.000092
     80       0.000000   0.000000   0.000000   0.000000   0.000092  -0.000041
     81       0.000010   0.000000   0.000000   0.001122   0.000000   0.000000
     82       0.000000  -0.000154   0.000092   0.000000  -0.010496   0.006493
     83       0.000000   0.000092  -0.000041   0.000000   0.006493  -0.002507
     84       0.000000   0.000000   0.000000   0.000000  -0.000003   0.000003
     85       0.000000  -0.000003   0.000003   0.000000  -0.000768   0.000669
     86       0.000000   0.000000   0.000000   0.000000  -0.000000   0.000000
     87       0.000000   0.000000   0.000000   0.000000  -0.000001   0.000000
     88       0.000000  -0.000000   0.000000   0.000000  -0.000190   0.000061
     89       0.000000   0.000000   0.000000   0.000000   0.000000   0.000000
     90       0.000000   0.000000   0.000000   0.000000  -0.000002   0.000001
     91       0.000000   0.000000   0.000000   0.000000   0.000001  -0.000000
     92       0.000000   0.000000   0.000000   0.000045   0.000000   0.000000
     93       0.000000  -0.000002   0.000001   0.000000  -0.000766   0.000258
     94       0.000000   0.000001  -0.000000   0.000000   0.000258  -0.000038
     95       0.000000   0.000000   0.000000   0.000000  -0.000001   0.000000
     96       0.000000  -0.000001   0.000000   0.000000  -0.000304   0.000031
     97       0.000000   0.000000   0.000000   0.000000  -0.000000   0.000000
     98       0.000000  -0.000000   0.000000   0.000000  -0.000005   0.000002
     99       0.000000  -0.000000   0.000001   0.000000  -0.005883   0.009482
    100       0.000000  -0.000476   0.000767   0.000000  -0.045365   0.073124
    101       0.000000  -0.018176   0.029298   0.000000  -0.127082   0.204840
    102       0.000156   0.000000   0.000000   0.016617   0.000000   0.000000
    103       0.000000  -0.000577   0.001182   0.000000  -0.015273   0.051402
    104       0.000000   0.001182  -0.001749   0.000000   0.051402  -0.066238
    105       0.016617   0.000000   0.000000   0.116178   0.000000   0.000000
    106       0.000000  -0.015273   0.051402   0.000000  -0.022832   0.224066
    107       0.000000   0.051402  -0.066238   0.000000   0.224066  -0.244989
    108       0.000000  -0.000000   0.000000   0.000000  -0.001250   0.003021
    109       0.000000  -0.000874   0.002114   0.000000  -0.018066   0.043666
                 36         37         38         39         40         41    
      0       0.000000   0.000000   0.002717   0.000000  -0.000001  -0.000000
      1       0.000000   0.000297   0.025941   0.000000  -0.000868  -0.000017
      2       0.002717   0.025941   0.114956   0.000000  -0.033975  -0.000671
      3       0.000000   0.000000   0.000000   0.000149   0.000000   0.000000
      4       0.000001   0.000868   0.033975   0.000000  -0.002392  -0.000050
      5       0.000000   0.000017   0.000671   0.000000  -0.000050   0.000148
      6       0.000000   0.000000   0.000000   0.016337   0.000000   0.000000
      7       0.010957   0.084830   0.239063   0.000000  -0.096986  -0.002237
      8       0.000216   0.001675   0.004719   0.000000  -0.002237   0.016293
      9       0.000000   0.000000   0.000758   0.000000  -0.000000  -0.000000
     10       0.000000   0.000022   0.009196   0.000000  -0.000063  -0.000039
     11       0.000758   0.009196   0.059499   0.000000  -0.011514  -0.007055
     12       0.000000   0.000000   0.000000   0.000011   0.000000   0.000000
     13       0.000000   0.000063   0.011514   0.000000  -0.000169  -0.000111
     14       0.000000   0.000039   0.007055   0.000000  -0.000111  -0.000057
     15       0.000000   0.000000   0.000000   0.005684   0.000000   0.000000
     16       0.002976   0.029370   0.120522   0.000000  -0.031685  -0.022898
     17       0.001824   0.017996   0.073849   0.000000  -0.022898  -0.008346
     18       0.000000   0.000000   0.002993   0.000000  -0.000001  -0.000001
     19       0.000000   0.000361   0.028052   0.000000  -0.000501  -0.000916
     20       0.002993   0.028052   0.120822   0.000000  -0.017442  -0.031925
     21       0.000000   0.000000   0.000000   0.000182   0.000000   0.000000
     22       0.000001   0.000501   0.017442   0.000000  -0.000513  -0.001272
     23       0.000001   0.000916   0.031925   0.000000  -0.001272  -0.002146
     24       0.000000   0.000000   0.000000   0.017695   0.000000   0.000000
     25       0.005720   0.043472   0.119099   0.000000  -0.009885  -0.050479
     26       0.010469   0.079568   0.217988   0.000000  -0.050479  -0.074698
     27       0.000000   0.003447   0.044485   0.000000   0.000464  -0.010309
     28       0.003447   0.080636   0.248074   0.000000   0.006330  -0.140709
     29       0.044485   0.248074   0.485974   0.000000   0.008935  -0.198606
     30       0.000000   0.000000   0.000000   0.045186   0.000000   0.000000
     31      -0.000464  -0.006330  -0.008935   0.000000   0.044654   0.011829
     32       0.010309   0.140709   0.198606   0.000000   0.011829  -0.217757
     33       0.000000   0.000000   0.000000   0.165489   0.000000   0.000000
     34      -0.004658  -0.020879  -0.026238   0.000000   0.164713   0.017250
     35       0.103538   0.464094   0.583227   0.000000   0.017250  -0.217958
     36       1.000000   0.191447   0.180314   0.000000  -0.000000  -0.000000
     37       0.191447   1.000000   0.761357   0.000000  -0.000000  -0.000000
     38       0.180314   0.761357   1.000000   0.000000  -0.000000  -0.000000
     39       0.000000   0.000000   0.000000   1.000000   0.000000   0.000000
     40      -0.000000  -0.000000  -0.000000   0.000000   1.000000   0.000000
     41      -0.000000  -0.000000  -0.000000   0.000000   0.000000   1.000000
     42       0.000000   0.000000   0.000000   0.528959   0.000000   0.000000
     43      -0.000000  -0.000000   0.000000   0.000000   0.528959   0.000000
     44      -0.000000  -0.000000   0.000000   0.000000   0.000000   0.528959
     45       0.000000   0.000000   0.000097   0.000000  -0.000000  -0.000000
     46       0.000009   0.000222   0.005209   0.000000  -0.000351  -0.000217
     47       0.000000   0.000000   0.000738   0.000000  -0.000000  -0.000000
     48       0.000085   0.001453   0.017442   0.000000  -0.000807  -0.002272
     49       0.017590   0.187069   0.333217   0.000000   0.240588   0.151945
     50       0.079378   0.395456   0.662298   0.000000   0.197923   0.125000
     51       0.000000   0.000000   0.001935   0.000000   0.000000  -0.000000
     52       0.000000   0.000149   0.019690   0.000000   0.000238  -0.000385
     53       0.001935   0.019690   0.096477   0.000000   0.014034  -0.022685
     54       0.000000   0.000000   0.000000   0.000075   0.000000   0.000000
     55      -0.000000  -0.000238  -0.014034   0.000000  -0.000307   0.000617
     56       0.000000   0.000385   0.022685   0.000000   0.000617  -0.000922
     57       0.000000   0.000000   0.000000   0.012335   0.000000   0.000000
     58      -0.004268  -0.035256  -0.109768   0.000000  -0.013268   0.041385
     59       0.006898   0.056989   0.177433   0.000000   0.041385  -0.054562
     60       0.000000   0.000000   0.000263   0.000000   0.000000  -0.000000
     61       0.000000   0.000003   0.003890   0.000000   0.000008  -0.000005
     62       0.000263   0.003890   0.034495   0.000000   0.005189  -0.003320
     63       0.000000   0.000000   0.000000   0.000001   0.000000   0.000000
     64      -0.000000  -0.000008  -0.005189   0.000000  -0.000023   0.000016
     65       0.000000   0.000005   0.003320   0.000000   0.000016  -0.000009
     66       0.000000   0.000000   0.000000   0.002374   0.000000   0.000000
     67      -0.001116  -0.013431  -0.075400   0.000000  -0.015786   0.011619
     68       0.000714   0.008593   0.048243   0.000000   0.011619  -0.005061
     69       0.000000   0.000010   0.006306   0.000000   0.000032  -0.000007
     70       0.000943   0.010528   0.062658   0.000000   0.014532  -0.003048
     71       0.000000   0.000000   0.000570   0.000000   0.000000  -0.000000
     72       0.000064   0.001144   0.014956   0.000000   0.000681  -0.001806
     73       0.000000   0.000000   0.000029   0.000000   0.000000  -0.000000
     74       0.000002   0.000073   0.002554   0.000000   0.000120  -0.000080
     75       0.000000   0.000000   0.000008   0.000000   0.000000   0.000000
     76       0.000000   0.000000   0.000220   0.000000  -0.000000   0.000000
     77       0.000008   0.000220   0.005615   0.000000  -0.000412   0.000078
     78       0.000000   0.000000   0.000000   0.000000   0.000000   0.000000
     79       0.000000   0.000000   0.000412   0.000000  -0.000000   0.000000
     80       0.000000  -0.000000  -0.000078   0.000000   0.000000  -0.000000
     81       0.000000   0.000000   0.000000   0.000130   0.000000   0.000000
     82       0.000048   0.001102   0.017764   0.000000  -0.001951   0.000393
     83      -0.000009  -0.000208  -0.003358   0.000000   0.000393   0.000056
     84       0.000000   0.000000   0.000050   0.000000  -0.000000   0.000000
     85       0.000004   0.000119   0.003489   0.000000  -0.000205   0.000101
     86       0.000000   0.000000   0.000000   0.000000   0.000000   0.000000
     87       0.000000   0.000000   0.000001   0.000000   0.000000   0.000000
     88       0.000000   0.000001   0.000139   0.000000  -0.000001   0.000000
     89       0.000000   0.000000   0.000000   0.000000   0.000000   0.000000
     90       0.000000   0.000000   0.000001   0.000000   0.000000   0.000000
     91       0.000000   0.000000  -0.000000   0.000000   0.000000   0.000000
     92       0.000000   0.000000   0.000000   0.000000   0.000000   0.000000
     93       0.000000   0.000004   0.000586   0.000000  -0.000010   0.000000
     94      -0.000000  -0.000000  -0.000022   0.000000   0.000000   0.000000
     95       0.000000   0.000000   0.000000   0.000000   0.000000   0.000000
     96       0.000000   0.000000   0.000075   0.000000  -0.000001  -0.000000
     97       0.000000   0.000000   0.000000   0.000000   0.000000   0.000000
     98       0.000000   0.000000   0.000006   0.000000  -0.000000   0.000000
     99       0.000000   0.004031   0.046463   0.000000  -0.010448   0.005657
    100       0.004031   0.087697   0.256900   0.000000  -0.132888   0.071954
    101       0.046463   0.256900   0.496997   0.000000  -0.178409   0.096601
    102       0.000000   0.000000   0.000000   0.049475   0.000000   0.000000
    103       0.010448   0.132888   0.178409   0.000000  -0.166996   0.117210
    104      -0.005657  -0.071954  -0.096601   0.000000   0.117210  -0.013989
    105       0.000000   0.000000   0.000000   0.171569   0.000000   0.000000
    106       0.093701   0.416357   0.516811   0.000000  -0.126905   0.161612
    107      -0.050735  -0.225440  -0.279832   0.000000   0.161612   0.084063
    108       0.000002   0.001265   0.044397   0.000000  -0.001949   0.002740
    109       0.008366   0.063141   0.200151   0.000000  -0.040727   0.057243
                 42         43         44         45         46         47    
      0       0.000000  -0.010957  -0.000216   0.000001   0.007885   0.000000
      1       0.000000  -0.084830  -0.001675   0.001108   0.060153   0.000000
      2       0.000000  -0.239063  -0.004719   0.042105   0.193942   0.000694
      3       0.016337   0.000000   0.000000   0.000000   0.000000   0.000000
      4       0.000000  -0.096986  -0.002237  -0.001172  -0.026607   0.000000
      5       0.000000  -0.002237   0.016293  -0.002732  -0.062042  -0.000000
      6       0.114956   0.000000   0.000000   0.000000   0.000000   0.000000
      7       0.000000  -0.382198  -0.009814  -0.049695  -0.136079   0.001250
      8       0.000000  -0.009814   0.114763  -0.115879  -0.317311  -0.003021
      9       0.000000  -0.002976  -0.001824   0.017590   0.079378   0.000002
     10       0.000000  -0.029370  -0.017996   0.187069   0.395456   0.001265
     11       0.000000  -0.120522  -0.073849   0.333217   0.662298   0.044397
     12       0.005684   0.000000   0.000000   0.000000   0.000000   0.000000
     13       0.000000  -0.031685  -0.022898  -0.240588  -0.197923   0.001949
     14       0.000000  -0.022898  -0.008346  -0.151945  -0.125000  -0.002740
     15       0.059499   0.000000   0.000000   0.000000   0.000000   0.000000
     16       0.000000  -0.184631  -0.149588  -0.423720  -0.499262   0.076333
     17       0.000000  -0.149588  -0.032160  -0.267604  -0.315313  -0.107288
     18       0.000000  -0.005720  -0.010469   0.000002   0.008445   0.017481
     19       0.000000  -0.043472  -0.079568   0.001292   0.063629   0.186451
     20       0.000000  -0.119099  -0.217988   0.044773   0.201156   0.332763
     21       0.017695   0.000000   0.000000   0.000000   0.000000   0.000000
     22       0.000000  -0.009885  -0.050479  -0.003427  -0.070646   0.005388
     23       0.000000  -0.050479  -0.074698   0.000133   0.002737  -0.283757
     24       0.120822   0.000000   0.000000   0.000000   0.000000   0.000000
     25       0.000000   0.003421  -0.214880  -0.132481  -0.353824   0.009511
     26       0.000000  -0.214880  -0.272477   0.005132   0.013707  -0.500867
     27       0.000000   0.004658  -0.103538   0.000000   0.000079   0.000002
     28       0.000000   0.020879  -0.464094   0.000000   0.001363   0.001142
     29       0.000000   0.026238  -0.583227   0.000688   0.016736   0.042611
     30       0.165489   0.000000   0.000000   0.000000   0.000000   0.000000
     31       0.000000   0.164713   0.017250  -0.000000  -0.002233  -0.001700
     32       0.000000   0.017250  -0.217958  -0.000000  -0.000417  -0.002540
     33       0.485974   0.000000   0.000000   0.000000   0.000000   0.000000
     34       0.000000   0.484558   0.031489  -0.003190  -0.046258  -0.070820
     35       0.000000   0.031489  -0.213967  -0.000595  -0.008632  -0.105811
     36       0.000000  -0.000000  -0.000000   0.000000   0.000009   0.000000
     37       0.000000  -0.000000  -0.000000   0.000000   0.000222   0.000000
     38       0.000000   0.000000   0.000000   0.000097   0.005209   0.000738
     39       0.528959   0.000000   0.000000   0.000000   0.000000   0.000000
     40       0.000000   0.528959   0.000000  -0.000000  -0.000351  -0.000000
     41       0.000000   0.000000   0.528959  -0.000000  -0.000217  -0.000000
     42       1.000000   0.000000   0.000000   0.000000   0.000000   0.000000
     43       0.000000   1.000000   0.000000  -0.000442  -0.014125  -0.001158
     44       0.000000   0.000000   1.000000  -0.000273  -0.008729  -0.003261
     45       0.000000  -0.000442  -0.000273   1.000000   0.645899   0.000084
     46       0.000000  -0.014125  -0.008729   0.645899   1.000000   0.022377
     47       0.000000  -0.001158  -0.003261   0.000084   0.022377   1.000000
     48       0.000000  -0.016323  -0.045981   0.022377   0.129975   0.645899
     49       0.000000   0.423720   0.267604   0.000000   0.000001   0.000000
     50       0.000000   0.499262   0.315313   0.000001   0.000241   0.000021
     51       0.000000   0.004268  -0.006898   0.000000   0.000000   0.000000
     52       0.000000   0.035256  -0.056989   0.000000   0.000007   0.000027
     53       0.000000   0.109768  -0.177433   0.000002   0.000542   0.009506
     54       0.012335   0.000000   0.000000   0.000000   0.000000   0.000000
     55       0.000000  -0.013268   0.041385   0.000000  -0.000014  -0.000082
[...]
                  --------  --------
  0C   1s        -0.013814  0.092249
  0C   2s        -0.320651  0.956216
  0C   3s         1.050322 -6.195522
  0C   1pz       -0.000000 -0.000000
  0C   1px        0.059528  0.172808
  0C   1py        0.070421 -0.096043
  0C   2pz        0.000000  0.000000
  0C   2px       -1.524641 -4.077473
  0C   2py       -2.229604  2.275903
  1C   1s         0.043086 -0.090254
  1C   2s         1.045852 -1.035421
  1C   3s        -3.937187  6.634419
  1C   1pz        0.000000  0.000000
  1C   1px        0.110138 -0.088737
  1C   1py        0.126885 -0.053531
  1C   2pz       -0.000000 -0.000000
  1C   2px       -0.905992  3.655819
  1C   2py       -1.645946  2.275307
  2C   1s        -0.033114  0.089377
  2C   2s        -0.867786  1.025224
  2C   3s         3.273116 -6.573255
  2C   1pz       -0.000000  0.000000
  2C   1px       -0.022717 -0.005614
  2C   1py       -0.180020  0.103987
  2C   2pz        0.000000  0.000000
  2C   2px        0.498417  0.122851
  2C   2py        1.738531 -4.278220
  3C   1s        -0.013814 -0.092249
  3C   2s        -0.320652 -0.956216
  3C   3s         1.050323  6.195523
  3C   1pz        0.000000  0.000000
  3C   1px       -0.059528  0.172808
  3C   1py       -0.070421 -0.096043
  3C   2pz       -0.000000 -0.000000
  3C   2px        1.524642 -4.077473
  3C   2py        2.229604  2.275903
  4C   1s         0.043086  0.090254
  4C   2s         1.045852  1.035421
  4C   3s        -3.937187 -6.634418
  4C   1pz       -0.000000 -0.000000
  4C   1px       -0.110138 -0.088737
  4C   1py       -0.126885 -0.053531
  4C   2pz        0.000000  0.000000
  4C   2px        0.905992  3.655819
  4C   2py        1.645947  2.275307
  5H   1s        -0.016637  0.284829
  5H   2s        -0.161518  0.822154
  6H   1s         0.127672 -0.287263
  6H   2s         0.212479 -0.809939
  7H   1s        -0.016637 -0.284829
  7H   2s        -0.161518 -0.822154
  8C   1s         0.018778 -0.003420
  8C   2s         0.464156  0.115337
  8C   3s        -1.580221  1.146744
  8C   1pz       -0.000000 -0.000000
  8C   1px        0.094968 -0.112672
  8C   1py        0.124238  0.053484
  8C   2pz        0.000000  0.000000
  8C   2px       -0.939406 -0.370624
  8C   2py       -1.487422  0.320062
  9C   1s        -0.012493 -0.001781
  9C   2s        -0.123364 -0.017376
  9C   3s         1.548371 -0.038204
  9C   1pz        0.000000  0.000000
  9C   1px       -0.120433  0.008310
  9C   1py       -0.019051  0.015126
  9C   2pz       -0.000000 -0.000000
  9C   2px       -0.598946  0.015027
  9C   2py       -0.006562 -0.062959
 10H   1s        -0.108729  0.005866
 10H   2s        -0.097267  0.042060
 11H   1s        -0.218858  0.004250
 11H   2s        -0.316383  0.034059
 12H   1s        -0.010229 -0.000336
 12H   2s        -0.007651 -0.006529
 13C   1s         0.018778  0.003420
 13C   2s         0.464156 -0.115337
 13C   3s        -1.580219 -1.146744
 13C   1pz        0.000000  0.000000
 13C   1px       -0.094968 -0.112672
 13C   1py       -0.124238  0.053484
 13C   2pz       -0.000000 -0.000000
 13C   2px        0.939406 -0.370625
 13C   2py        1.487421  0.320062
 14H   1s        -0.218858 -0.004250
 14H   2s        -0.316383 -0.034058
 15C   1s        -0.012493  0.001781
 15C   2s        -0.123364  0.017376
 15C   3s         1.548370  0.038203
 15C   1pz        0.000000 -0.000000
 15C   1px        0.120433  0.008310
 15C   1py        0.019051  0.015126
 15C   2pz        0.000000  0.000000
 15C   2px        0.598945  0.015027
 15C   2py        0.006562 -0.062959
 16H   1s        -0.108729 -0.005866
 16H   2s        -0.097267 -0.042060
 17H   1s        -0.010229  0.000336
 17H   2s        -0.007651  0.006529
 18C   1s        -0.033114 -0.089377
 18C   2s        -0.867786 -1.025223
 18C   3s         3.273116  6.573254
 18C   1pz       -0.000000 -0.000000
 18C   1px        0.022717 -0.005614
 18C   1py        0.180020  0.103987
 18C   2pz        0.000000  0.000000
 18C   2px       -0.498417  0.122851
 18C   2py       -1.738531 -4.278219
 19H   1s         0.127672  0.287263
 19H   2s         0.212479  0.809939



                    ********************************
                    * MULLIKEN POPULATION ANALYSIS *
                    ********************************

------------------------------------------
MULLIKEN ATOMIC CHARGES AND SPIN DENSITIES
------------------------------------------
   0 C :    0.008612    0.228278
   1 C :   -0.159878    0.028078
   2 C :   -0.150812    0.003408
   3 C :    0.008612    0.228278
   4 C :   -0.159878    0.028078
   5 H :    0.245024   -0.002168
   6 H :    0.252842   -0.001080
   7 H :    0.245024   -0.002168
   8 C :   -0.158477   -0.065877
   9 C :   -0.303045    0.342226
  10 H :    0.243433   -0.016999
  11 H :    0.251586    0.001718
  12 H :    0.270717   -0.017583
  13 C :   -0.158477   -0.065877
  14 H :    0.251586    0.001718
  15 C :   -0.303045    0.342226
  16 H :    0.243433   -0.016999
  17 H :    0.270717   -0.017583
  18 C :   -0.150812    0.003408
  19 H :    0.252842   -0.001080
Sum of atomic charges       :    1.0000000
Sum of atomic spin densities:    1.0000000

---------------------------------------------------
MULLIKEN REDUCED ORBITAL CHARGES AND SPIN DENSITIES
---------------------------------------------------
CHARGE
  0 C s       :     3.017227  s :     3.017227
      pz      :     1.373885  p :     2.974162
      px      :     0.692363
      py      :     0.907913
  1 C s       :     2.999108  s :     2.999108
      pz      :     1.453019  p :     3.160770
      px      :     0.808910
      py      :     0.898842
  2 C s       :     3.001351  s :     3.001351
      pz      :     1.447732  p :     3.149461
      px      :     0.642094
      py      :     1.059636
  3 C s       :     3.017227  s :     3.017227
      pz      :     1.373885  p :     2.974162
      px      :     0.692363
      py      :     0.907913
  4 C s       :     2.999108  s :     2.999108
      pz      :     1.453019  p :     3.160770
      px      :     0.808910
      py      :     0.898842
  5 H s       :     0.754976  s :     0.754976
  6 H s       :     0.747158  s :     0.747158
  7 H s       :     0.754976  s :     0.754976
  8 C s       :     2.992595  s :     2.992595
      pz      :     1.451361  p :     3.165882
      px      :     0.640248
      py      :     1.074274
  9 C s       :     3.009703  s :     3.009703
      pz      :     1.458444  p :     3.293342
      px      :     0.696450
      py      :     1.138447
 10 H s       :     0.756567  s :     0.756567
 11 H s       :     0.748414  s :     0.748414
 12 H s       :     0.729283  s :     0.729283
 13 C s       :     2.992595  s :     2.992595
      pz      :     1.451361  p :     3.165882
      px      :     0.640248
      py      :     1.074274
 14 H s       :     0.748414  s :     0.748414
 15 C s       :     3.009703  s :     3.009703
      pz      :     1.458444  p :     3.293342
      px      :     0.696450
      py      :     1.138447
 16 H s       :     0.756567  s :     0.756567
 17 H s       :     0.729283  s :     0.729283
 18 C s       :     3.001351  s :     3.001351
      pz      :     1.447732  p :     3.149461
      px      :     0.642094
      py      :     1.059636
 19 H s       :     0.747158  s :     0.747158

SPIN
  0 C s       :     0.003622  s :     0.003622
      pz      :     0.118493  p :     0.224655
      px      :     0.098807
      py      :     0.007355
  1 C s       :    -0.002722  s :    -0.002722
      pz      :     0.016246  p :     0.030800
      px      :     0.020153
      py      :    -0.005600
  2 C s       :    -0.000947  s :    -0.000947
      pz      :     0.003854  p :     0.004355
      px      :     0.006598
      py      :    -0.006097
  3 C s       :     0.003622  s :     0.003622
      pz      :     0.118493  p :     0.224655
      px      :     0.098807
      py      :     0.007355
  4 C s       :    -0.002722  s :    -0.002722
      pz      :     0.016246  p :     0.030800
      px      :     0.020153
      py      :    -0.005600
  5 H s       :    -0.002168  s :    -0.002168
  6 H s       :    -0.001080  s :    -0.001080
  7 H s       :    -0.002168  s :    -0.002168
  8 C s       :    -0.003679  s :    -0.003679
      pz      :    -0.031657  p :    -0.062199
      px      :    -0.019541
      py      :    -0.011000
  9 C s       :     0.008730  s :     0.008730
      pz      :     0.182028  p :     0.333496
      px      :     0.138737
      py      :     0.012730
 10 H s       :    -0.016999  s :    -0.016999
 11 H s       :     0.001718  s :     0.001718
 12 H s       :    -0.017583  s :    -0.017583
 13 C s       :    -0.003679  s :    -0.003679
      pz      :    -0.031657  p :    -0.062199
      px      :    -0.019541
      py      :    -0.011000
 14 H s       :     0.001718  s :     0.001718
 15 C s       :     0.008730  s :     0.008730
      pz      :     0.182028  p :     0.333496
      px      :     0.138737
      py      :     0.012730
 16 H s       :    -0.016999  s :    -0.016999
 17 H s       :    -0.017583  s :    -0.017583
 18 C s       :    -0.000947  s :    -0.000947
      pz      :     0.003854  p :     0.004355
      px      :     0.006598
      py      :    -0.006097
 19 H s       :    -0.001080  s :    -0.001080


                     *******************************
                     * LOEWDIN POPULATION ANALYSIS *
                     *******************************

-----------------------------------------
LOEWDIN ATOMIC CHARGES AND SPIN DENSITIES
-----------------------------------------
   0 C :    0.048452    0.192214
   1 C :   -0.046983    0.037781
   2 C :   -0.049319    0.017942
   3 C :    0.048452    0.192214
   4 C :   -0.046983    0.037781
   5 H :    0.130344   -0.001479
   6 H :    0.134429   -0.000824
   7 H :    0.130344   -0.001479
   8 C :   -0.057088   -0.033381
   9 C :   -0.058270    0.306104
  10 H :    0.124223   -0.009453
  11 H :    0.129695    0.000953
  12 H :    0.144517   -0.009857
  13 C :   -0.057088   -0.033381
  14 H :    0.129695    0.000953
  15 C :   -0.058270    0.306104
  16 H :    0.124223   -0.009453
  17 H :    0.144517   -0.009857
  18 C :   -0.049319    0.017942
  19 H :    0.134429   -0.000824

--------------------------------------------------
LOEWDIN REDUCED ORBITAL CHARGES AND SPIN DENSITIES
--------------------------------------------------
CHARGE
  0 C s       :     2.988686  s :     2.988686
      pz      :     1.030645  p :     2.962862
      px      :     0.858965
      py      :     1.073252
  1 C s       :     2.973354  s :     2.973354
      pz      :     1.087222  p :     3.073629
      px      :     0.920540
      py      :     1.065868
  2 C s       :     2.971232  s :     2.971232
      pz      :     1.093429  p :     3.078087
      px      :     0.867604
      py      :     1.117054
  3 C s       :     2.988686  s :     2.988686
      pz      :     1.030645  p :     2.962862
      px      :     0.858965
      py      :     1.073252
  4 C s       :     2.973354  s :     2.973354
      pz      :     1.087222  p :     3.073629
      px      :     0.920540
      py      :     1.065868
  5 H s       :     0.869656  s :     0.869656
  6 H s       :     0.865571  s :     0.865571
  7 H s       :     0.869656  s :     0.869656
  8 C s       :     2.961902  s :     2.961902
      pz      :     1.098707  p :     3.095186
      px      :     0.875108
      py      :     1.121372
  9 C s       :     2.982854  s :     2.982854
      pz      :     1.059694  p :     3.075416
      px      :     0.860948
      py      :     1.154774
 10 H s       :     0.875777  s :     0.875777
 11 H s       :     0.870305  s :     0.870305
 12 H s       :     0.855483  s :     0.855483
 13 C s       :     2.961902  s :     2.961902
      pz      :     1.098707  p :     3.095186
      px      :     0.875108
      py      :     1.121372
 14 H s       :     0.870305  s :     0.870305
 15 C s       :     2.982854  s :     2.982854
      pz      :     1.059694  p :     3.075416
      px      :     0.860948
      py      :     1.154774
 16 H s       :     0.875777  s :     0.875777
 17 H s       :     0.855483  s :     0.855483
 18 C s       :     2.971232  s :     2.971232
      pz      :     1.093429  p :     3.078087
      px      :     0.867604
      py      :     1.117054
 19 H s       :     0.865571  s :     0.865571

SPIN
  0 C s       :     0.006236  s :     0.006236
      pz      :     0.087739  p :     0.185978
      px      :     0.094397
      py      :     0.003842
  1 C s       :    -0.002048  s :    -0.002048
      pz      :     0.019828  p :     0.039829
      px      :     0.020303
      py      :    -0.000302
  2 C s       :    -0.000845  s :    -0.000845
      pz      :     0.011343  p :     0.018787
      px      :     0.009811
      py      :    -0.002366
  3 C s       :     0.006236  s :     0.006236
      pz      :     0.087739  p :     0.185978
      px      :     0.094397
      py      :     0.003842
  4 C s       :    -0.002048  s :    -0.002048
      pz      :     0.019828  p :     0.039829
      px      :     0.020303
      py      :    -0.000302
  5 H s       :    -0.001479  s :    -0.001479
  6 H s       :    -0.000824  s :    -0.000824
  7 H s       :    -0.001479  s :    -0.001479
  8 C s       :    -0.004100  s :    -0.004100
      pz      :    -0.013770  p :    -0.029281
      px      :    -0.009685
      py      :    -0.005826
  9 C s       :     0.011611  s :     0.011611
      pz      :     0.153389  p :     0.294494
      px      :     0.134837
      py      :     0.006268
 10 H s       :    -0.009453  s :    -0.009453
 11 H s       :     0.000953  s :     0.000953
 12 H s       :    -0.009857  s :    -0.009857
 13 C s       :    -0.004100  s :    -0.004100
      pz      :    -0.013770  p :    -0.029281
      px      :    -0.009685
      py      :    -0.005826
 14 H s       :     0.000953  s :     0.000953
 15 C s       :     0.011611  s :     0.011611
      pz      :     0.153389  p :     0.294494
      px      :     0.134837
      py      :     0.006268
 16 H s       :    -0.009453  s :    -0.009453
 17 H s       :    -0.009857  s :    -0.009857
 18 C s       :    -0.000845  s :    -0.000845
      pz      :     0.011343  p :     0.018787
      px      :     0.009811
      py      :    -0.002366
 19 H s       :    -0.000824  s :    -0.000824


                      *****************************
                      * MAYER POPULATION ANALYSIS *
                      *****************************

  NA   - Mulliken gross atomic population
  ZA   - Total nuclear charge
  QA   - Mulliken gross atomic charge
  VA   - Mayer's total valence
  BVA  - Mayer's bonded valence
  FA   - Mayer's free valence

  ATOM       NA         ZA         QA         VA         BVA        FA
  0 C      5.9914     6.0000     0.0086     3.6971     3.6613     0.0358
  1 C      6.1599     6.0000    -0.1599     3.7405     3.7390     0.0015
  2 C      6.1508     6.0000    -0.1508     3.7295     3.7290     0.0005
  3 C      5.9914     6.0000     0.0086     3.6971     3.6613     0.0358
  4 C      6.1599     6.0000    -0.1599     3.7405     3.7390     0.0015
  5 H      0.7550     1.0000     0.2450     0.9174     0.9174     0.0000
  6 H      0.7472     1.0000     0.2528     0.9123     0.9123     0.0000
  7 H      0.7550     1.0000     0.2450     0.9174     0.9174     0.0000
  8 C      6.1585     6.0000    -0.1585     3.7223     3.7210     0.0013
  9 C      6.3030     6.0000    -0.3030     3.6771     3.5937     0.0834
 10 H      0.7566     1.0000     0.2434     0.9131     0.9128     0.0003
 11 H      0.7484     1.0000     0.2516     0.9084     0.9084     0.0000
 12 H      0.7293     1.0000     0.2707     0.8994     0.8991     0.0003
 13 C      6.1585     6.0000    -0.1585     3.7223     3.7210     0.0013
 14 H      0.7484     1.0000     0.2516     0.9084     0.9084     0.0000
 15 C      6.3030     6.0000    -0.3030     3.6771     3.5937     0.0834
 16 H      0.7566     1.0000     0.2434     0.9131     0.9128     0.0003
 17 H      0.7293     1.0000     0.2707     0.8994     0.8991     0.0003
 18 C      6.1508     6.0000    -0.1508     3.7295     3.7290     0.0005
 19 H      0.7472     1.0000     0.2528     0.9123     0.9123     0.0000

  Mayer bond orders larger than 0.1
B(  0-C ,  1-C ) :   1.2170 B(  0-C , 13-C ) :   1.1395 B(  0-C , 18-C ) :   1.2089 
B(  1-C ,  2-C ) :   1.5184 B(  1-C ,  5-H ) :   0.9026 B(  2-C ,  3-C ) :   1.2089 
B(  2-C ,  6-H ) :   0.9051 B(  3-C ,  4-C ) :   1.2170 B(  3-C ,  8-C ) :   1.1395 
B(  4-C ,  7-H ) :   0.9026 B(  4-C , 18-C ) :   1.5184 B(  8-C ,  9-C ) :   1.6170 
B(  8-C , 11-H ) :   0.9017 B(  9-C , 10-H ) :   0.9044 B(  9-C , 12-H ) :   0.8959 
B( 13-C , 14-H ) :   0.9017 B( 13-C , 15-C ) :   1.6170 B( 15-C , 16-H ) :   0.9044 
B( 15-C , 17-H ) :   0.8959 B( 18-C , 19-H ) :   0.9051 

-------
TIMINGS
-------

Total SCF time: 0 hours 0 min 41 sec 

Total time                  ....      41.326 sec
Sum of individual times     ....      40.510 sec  ( 98.0%)

Fock matrix formation       ....      26.882 sec  ( 65.0%)
  Coulomb formation         ....      11.613 sec  ( 43.2% of F)
  XC integration            ....      15.032 sec  ( 55.9% of F)
    Basis function eval.    ....       4.565 sec  ( 30.4% of XC)
    Density eval.           ....       4.560 sec  ( 30.3% of XC)
    XC-Functional eval.     ....       0.856 sec  (  5.7% of XC)
    XC-Potential eval.      ....       1.874 sec  ( 12.5% of XC)
Diagonalization             ....       0.079 sec  (  0.2%)
Density matrix formation    ....       0.005 sec  (  0.0%)
Population analysis         ....       0.306 sec  (  0.7%)
Initial guess               ....       0.113 sec  (  0.3%)
Orbital Transformation      ....       0.000 sec  (  0.0%)
Orbital Orthonormalization  ....       0.099 sec  (  0.2%)
DIIS solution               ....       0.018 sec  (  0.0%)
Grid generation             ....      13.008 sec  ( 31.5%)

-------------------------   ----------------
FINAL SINGLE POINT ENERGY     -384.384532394
-------------------------   ----------------


                            ***************************************
                            *     ORCA property calculations      *
                            ***************************************

                                    ---------------------
                                    Active property flags
                                    ---------------------
   (+) Dipole Moment


------------------------------------------------------------------------------
                       ORCA ELECTRIC PROPERTIES CALCULATION
------------------------------------------------------------------------------

Dipole Moment Calculation                       ... on
Quadrupole Moment Calculation                   ... off
Polarizability Calculation                      ... off
GBWName                                         ... /u/qb/adamlt/orca/cclib/dvb_un_sp.gbw
Electron density file                           ... /u/qb/adamlt/orca/cclib/dvb_un_sp.scfp.tmp

-------------
DIPOLE MOMENT
-------------
                                X             Y             Z
Electronic contribution:     -0.00000       0.00000      -0.00000
Nuclear contribution   :      0.00000      -0.00000       0.00000
                        -----------------------------------------
Total Dipole Moment    :     -0.00000       0.00000      -0.00000
                        -----------------------------------------
Magnitude (a.u.)       :      0.00000
Magnitude (Debye)      :      0.00000


Timings for individual modules:

Sum of individual times         ...       43.817 sec (=   0.730 min)
GTO integral calculation        ...        1.185 sec (=   0.020 min)   2.7 %
SCF iterations                  ...       42.632 sec (=   0.711 min)  97.3 %
                             ****ORCA TERMINATED NORMALLY****
TOTAL RUN TIME: 0 days 0 hours 0 minutes 44 seconds 938 msec
