
                                 *****************
                                 * O   R   C   A *
                                 *****************

           --- An Ab Initio, DFT and Semiempirical electronic structure package ---

                  #######################################################
                  #                        -***-                        #
                  #          Department of theory and spectroscopy      #
                  #               Directorship: Frank Neese             #
                  #        Max Planck Institute fuer Kohlenforschung    #
                  #                Kaiser Wilhelm Platz 1               #
                  #                 D-45470 Muelheim/Ruhr               #
                  #                      Germany                        #
                  #                                                     #
                  #                  All rights reserved                #
                  #                        -***-                        #
                  #######################################################


                         Program Version 4.1.x  -  STABLE  -
                                (SVN: $Rev: 13440$)
                ($Date: 2019-02-20 11:41:50 +0100 (Wed, 20 Feb 2019) $)

                         (BUILD: $Wed Mar  6 04:13:18 CET 2019$)


 With contributions from (in alphabetic order):
   Daniel Aravena         : Magnetic Properties
   Michael Atanasov       : Ab Initio Ligand Field Theory
   Alexander A. Auer      : GIAO ZORA
   Ute Becker             : Parallelization
   Giovanni Bistoni       : ED, Open-shell LED
   Martin Brehm           : Molecular dynamics
   Dmytro Bykov           : SCF Hessian
   Vijay G. Chilkuri      : MRCI spin determinant printing
   Dipayan Datta          : RHF DLPNO-CCSD density
   Achintya Kumar Dutta   : EOM-CC, STEOM-CC
   Dmitry Ganyushin       : Spin-Orbit,Spin-Spin,Magnetic field MRCI
   Miquel Garcia          : C-PCM Hessian
   Yang Guo               : DLPNO-NEVPT2, CIM, IAO-localization
   Andreas Hansen         : Spin unrestricted coupled pair/coupled cluster methods
   Benjamin Helmich-Paris : CASSCF linear response (MC-RPA)
   Lee Huntington         : MR-EOM, pCC
   Robert Izsak           : Overlap fitted RIJCOSX, COSX-SCS-MP3, EOM
   Christian Kollmar      : KDIIS, OOCD, Brueckner-CCSD(T), CCSD density
   Simone Kossmann        : Meta GGA functionals, TD-DFT gradient, OOMP2, MP2 Hessian
   Martin Krupicka        : AUTO-CI
   Lucas Lang             : DCDCAS
   Dagmar Lenk            : GEPOL surface, SMD
   Dimitrios Liakos       : Extrapolation schemes; parallel MDCI
   Dimitrios Manganas     : ROCIS; embedding schemes
   Dimitrios Pantazis     : SARC Basis sets
   Taras Petrenko         : DFT Hessian,TD-DFT gradient, ASA, ECA, R-Raman, ABS, FL, XAS/XES, NRVS
   Peter Pinski           : DLPNO-MP2, DLPNO-MP2 Gradient
   Christoph Reimann      : Effective Core Potentials
   Marius Retegan         : Local ZFS, SOC
   Christoph Riplinger    : Optimizer, TS searches, QM/MM, DLPNO-CCSD(T), (RO)-DLPNO pert. Triples
   Tobias Risthaus        : Range-separated hybrids, TD-DFT gradient, RPA, STAB
   Michael Roemelt        : Restricted open shell CIS
   Masaaki Saitow         : Open-shell DLPNO
   Barbara Sandhoefer     : DKH picture change effects
   Avijit Sen             : IP-ROCIS
   Kantharuban Sivalingam : CASSCF convergence, NEVPT2, FIC-MRCI
   Bernardo de Souza      : ESD, SOC TD-DFT
   Georgi Stoychev        : AutoAux, RI-MP2 NMR
   Willem Van den Heuvel  : Paramagnetic NMR
   Boris Wezisla          : Elementary symmetry handling
   Frank Wennmohs         : Technical directorship


 We gratefully acknowledge several colleagues who have allowed us to
 interface, adapt or use parts of their codes:
   Stefan Grimme, W. Hujo, H. Kruse,             : VdW corrections, initial TS optimization,
                  C. Bannwarth                     DFT functionals, gCP, sTDA/sTD-DF
   Ed Valeev                                     : LibInt (2-el integral package), F12 methods
   Garnet Chan, S. Sharma, J. Yang, R. Olivares  : DMRG
   Ulf Ekstrom                                   : XCFun DFT Library
   Mihaly Kallay                                 : mrcc  (arbitrary order and MRCC methods)
   Andreas Klamt, Michael Diedenhofen            : otool_cosmo (COSMO solvation model)
   Jiri Pittner, Ondrej Demel                    : Mk-CCSD
   Frank Weinhold                                : gennbo (NPA and NBO analysis)
   Christopher J. Cramer and Donald G. Truhlar   : smd solvation model
   Lars Goerigk                                  : TD-DFT with DH, B97 family of functionals
   V. Asgeirsson, H. Jonsson                     : NEB implementation
   FAccTs GmbH                                   : IRC, NEB, NEB-TS, Multilevel


 Your calculation uses the libint2 library for the computation of 2-el integrals
 For citations please refer to: http://libint.valeyev.net

 This ORCA versions uses:
   CBLAS   interface :  Fast vector & matrix operations
   LAPACKE interface :  Fast linear algebra routines
   SCALAPACK package :  Parallel linear algebra routines


----- Orbital basis set information -----
Your calculation utilizes the basis: ZORA-def2-TZVP 
   Exponents from def2-TZVP [F. Weigend and R. Ahlrichs, Phys. Chem. Chem. Phys. 7, 3297 (2005)],
   recontracted for ZORA by D. A. Pantazis.

----- AuxJ basis set information -----
Your calculation utilizes the auxiliary basis: SARC/J 
   decontracted def2/J up to Kr:
   F. Weigend, Phys. Chem. Chem. Phys. 8, 1057 (2006)
   and SARC auxiliary basis sets beyond Kr:
   D. A. Pantazis and F. Neese, J. Chem. Theory Comput. 5, 2229 (2009).
   D. A. Pantazis, X. Y. Chen, C. R. Landis and F. Neese, J. Chem. Theory Comput. 4, 908 (2008).
   D. A. Pantazis and F. Neese, Theor. Chem. Acc. 131, 1292 (2012).
   D. A. Pantazis and F. Neese, J. Chem. Theory Comput. 7, 677 (2011).

cite the ECPs for Ca [SD(10,MWB)] as follows:
  M. Kaupp, P. v. R. Schleyer, H. Stoll, H. Preuss, J. Chem. Phys. 94, 1360 (1991).

cite the ECPs for Cl [SD(10,MWB)] as follows:
  A. Bergner, M. Dolg, W. Kuechle, H. Stoll, H. Preuss, Mol. Phys. 80, 1431 (1993).

ECP parameters for Ca [SD(10,MWB)], Cl [SD(10,MWB)] have been obtained from:
  pseudopotential library of the Stuttgart/Cologne group
  http://www.theochem.uni-stuttgart.de/pseudopotentials/

================================================================================
                                        WARNINGS
                       Please study these warnings very carefully!
================================================================================


INFO   : the flag for use of LIBINT has been found!

================================================================================
                                       INPUT FILE
================================================================================
NAME = cl2_pc1_dbz.inp
|  1> ! RKS BP86 RI ZORA-Def2-TZVP SARC/J Grid4 NoFinalGrid ZORA
|  2> ! TightSCF SlowConv
|  3> ! NormalPrint ReducedPop
|  4> %pal nprocs 12 end 
|  5> %maxcore 4500
|  6> %method
|  7>         SpecialGridAtoms    20  
|  8>         SpecialGridIntAcc   7   
|  9>         end 
| 10> %xes
| 11>         CoreOrb         0   
| 12>         DoQuadrupole    False
| 13>         end 
| 14> % pointcharges "pc.pc"
| 15> * xyz -4 1
| 16> Ca         0.00000        0.00000        0.00000
| 17> Cl         1.40400        1.12500        2.10000
| 18> Cl        -1.40400       -1.12500        2.10000
| 19> Cl        -1.71600        2.09000        0.00000
| 20> Cl         1.40400        1.12500       -2.10000
| 21> Cl        -1.40400       -1.12500       -2.10000
| 22> Cl         1.71600       -2.09000       -0.00000
| 23> Ca>	1.82574	        -3.12000        3.21500        6.30000 NewECP "SDD" end
| 24> Ca>	1.82574	         3.12000        3.21500        6.30000 NewECP "SDD" end
| 25> Ca>	1.82574	        -3.12000       -3.21500        6.30000 NewECP "SDD" end
| 26> Ca>	1.82574	         3.12000       -3.21500        6.30000 NewECP "SDD" end
| 27> Ca>	1.82574	        -3.12000        3.21500        2.10000 NewECP "SDD" end
| 28> Ca>	1.82574	         0.00000        6.43000        4.20000 NewECP "SDD" end
| 29> Ca>	1.82574	         3.12000        3.21500        2.10000 NewECP "SDD" end
| 30> Ca>	1.82574	        -6.24000       -0.00000        4.20000 NewECP "SDD" end
| 31> Ca>	1.82574	        -3.12000       -3.21500        2.10000 NewECP "SDD" end
| 32> Ca>	1.82574	         0.00000       -0.00000        4.20000 NewECP "SDD" end
| 33> Ca>	1.82574	         3.12000       -3.21500        2.10000 NewECP "SDD" end
| 34> Ca>	1.82574	         6.24000       -0.00000        4.20000 NewECP "SDD" end
| 35> Ca>	1.82574	         0.00000       -6.43000        4.20000 NewECP "SDD" end
| 36> Ca>	1.82574	        -3.12000        3.21500       -2.10000 NewECP "SDD" end
| 37> Ca>	1.82574	         0.00000        6.43000       -0.00000 NewECP "SDD" end
| 38> Ca>	1.82574	         3.12000        3.21500       -2.10000 NewECP "SDD" end
| 39> Ca>	1.82574	        -6.24000       -0.00000       -0.00000 NewECP "SDD" end
| 40> Ca>	1.82574	        -3.12000       -3.21500       -2.10000 NewECP "SDD" end
| 41> Ca>	1.82574	         3.12000       -3.21500       -2.10000 NewECP "SDD" end
| 42> Ca>	1.82574	         6.24000        0.00000        0.00000 NewECP "SDD" end
| 43> Ca>	1.82574	        -0.00000       -6.43000        0.00000 NewECP "SDD" end
| 44> Ca>	1.82574	        -3.12000        3.21500       -6.30000 NewECP "SDD" end
| 45> Ca>	1.82574	        -0.00000        6.43000       -4.20000 NewECP "SDD" end
| 46> Ca>	1.82574	         3.12000        3.21500       -6.30000 NewECP "SDD" end
| 47> Ca>	1.82574	        -6.24000        0.00000       -4.20000 NewECP "SDD" end
| 48> Ca>	1.82574	        -3.12000       -3.21500       -6.30000 NewECP "SDD" end
| 49> Ca>	1.82574	        -0.00000        0.00000       -4.20000 NewECP "SDD" end
| 50> Ca>	1.82574	         3.12000       -3.21500       -6.30000 NewECP "SDD" end
| 51> Ca>	1.82574	         6.24000        0.00000       -4.20000 NewECP "SDD" end
| 52> Ca>	1.82574	        -0.00000       -6.43000       -4.20000 NewECP "SDD" end
| 53> Cl>	-0.91093	         1.40400        1.12500        6.30000 NewECP "SDD" end
| 54> Cl>	-0.91093	        -1.40400       -1.12500        6.30000 NewECP "SDD" end
| 55> Cl>	-0.91093	         1.40400        7.55500        2.10000 NewECP "SDD" end
| 56> Cl>	-0.91093	        -4.52400        4.34000        4.20000 NewECP "SDD" end
| 57> Cl>	-0.91093	        -1.71600        2.09000        4.20000 NewECP "SDD" end
| 58> Cl>	-0.91093	        -4.83600        1.12500        2.10000 NewECP "SDD" end
| 59> Cl>	-0.91093	        -1.40400        5.30500        2.10000 NewECP "SDD" end
| 60> Cl>	-0.91093	         1.71600        4.34000        4.20000 NewECP "SDD" end
| 61> Cl>	-0.91093	         4.52400        2.09000        4.20000 NewECP "SDD" end
| 62> Cl>	-0.91093	         4.83600        5.30500        2.10000 NewECP "SDD" end
| 63> Cl>	-0.91093	        -4.52400       -2.09000        4.20000 NewECP "SDD" end
| 64> Cl>	-0.91093	        -1.71600       -4.34000        4.20000 NewECP "SDD" end
| 65> Cl>	-0.91093	        -4.83600       -5.30500        2.10000 NewECP "SDD" end
| 66> Cl>	-0.91093	         1.71600       -2.09000        4.20000 NewECP "SDD" end
| 67> Cl>	-0.91093	         4.52400       -4.34000        4.20000 NewECP "SDD" end
| 68> Cl>	-0.91093	         1.40400       -5.30500        2.10000 NewECP "SDD" end
| 69> Cl>	-0.91093	         4.83600       -1.12500        2.10000 NewECP "SDD" end
| 70> Cl>	-0.91093	        -1.40400       -7.55500        2.10000 NewECP "SDD" end
| 71> Cl>	-0.91093	         1.40400        7.55500       -2.10000 NewECP "SDD" end
| 72> Cl>	-0.91093	        -4.52400        4.34000       -0.00000 NewECP "SDD" end
| 73> Cl>	-0.91093	        -4.83600        1.12500       -2.10000 NewECP "SDD" end
| 74> Cl>	-0.91093	        -1.40400        5.30500       -2.10000 NewECP "SDD" end
| 75> Cl>	-0.91093	         1.71600        4.34000       -0.00000 NewECP "SDD" end
| 76> Cl>	-0.91093	         4.52400        2.09000        0.00000 NewECP "SDD" end
| 77> Cl>	-0.91093	         4.83600        5.30500       -2.10000 NewECP "SDD" end
| 78> Cl>	-0.91093	        -4.52400       -2.09000       -0.00000 NewECP "SDD" end
| 79> Cl>	-0.91093	        -1.71600       -4.34000        0.00000 NewECP "SDD" end
| 80> Cl>	-0.91093	        -4.83600       -5.30500       -2.10000 NewECP "SDD" end
| 81> Cl>	-0.91093	         4.52400       -4.34000        0.00000 NewECP "SDD" end
| 82> Cl>	-0.91093	         1.40400       -5.30500       -2.10000 NewECP "SDD" end
| 83> Cl>	-0.91093	         4.83600       -1.12500       -2.10000 NewECP "SDD" end
| 84> Cl>	-0.91093	        -1.40400       -7.55500       -2.10000 NewECP "SDD" end
| 85> Cl>	-0.91093	        -4.52400        4.34000       -4.20000 NewECP "SDD" end
| 86> Cl>	-0.91093	        -1.71600        2.09000       -4.20000 NewECP "SDD" end
| 87> Cl>	-0.91093	         1.71600        4.34000       -4.20000 NewECP "SDD" end
| 88> Cl>	-0.91093	         4.52400        2.09000       -4.20000 NewECP "SDD" end
| 89> Cl>	-0.91093	         1.40400        1.12500       -6.30000 NewECP "SDD" end
| 90> Cl>	-0.91093	        -4.52400       -2.09000       -4.20000 NewECP "SDD" end
| 91> Cl>	-0.91093	        -1.71600       -4.34000       -4.20000 NewECP "SDD" end
| 92> Cl>	-0.91093	        -1.40400       -1.12500       -6.30000 NewECP "SDD" end
| 93> Cl>	-0.91093	         1.71600       -2.09000       -4.20000 NewECP "SDD" end
| 94> Cl>	-0.91093	         4.52400       -4.34000       -4.20000 NewECP "SDD" end
| 95> *
| 96> 
| 97>                          ****END OF INPUT****
================================================================================

                       ****************************
                       * Single Point Calculation *
                       ****************************

---------------------------------
CARTESIAN COORDINATES (ANGSTROEM)
---------------------------------
  Ca     0.000000    0.000000    0.000000
  Cl     1.404000    1.125000    2.100000
  Cl    -1.404000   -1.125000    2.100000
  Cl    -1.716000    2.090000    0.000000
  Cl     1.404000    1.125000   -2.100000
  Cl    -1.404000   -1.125000   -2.100000
  Cl     1.716000   -2.090000   -0.000000
  Ca>   -3.120000    3.215000    6.300000
  Ca>    3.120000    3.215000    6.300000
  Ca>   -3.120000   -3.215000    6.300000
  Ca>    3.120000   -3.215000    6.300000
  Ca>   -3.120000    3.215000    2.100000
  Ca>    0.000000    6.430000    4.200000
  Ca>    3.120000    3.215000    2.100000
  Ca>   -6.240000   -0.000000    4.200000
  Ca>   -3.120000   -3.215000    2.100000
  Ca>    0.000000   -0.000000    4.200000
  Ca>    3.120000   -3.215000    2.100000
  Ca>    6.240000   -0.000000    4.200000
  Ca>    0.000000   -6.430000    4.200000
  Ca>   -3.120000    3.215000   -2.100000
  Ca>    0.000000    6.430000   -0.000000
  Ca>    3.120000    3.215000   -2.100000
  Ca>   -6.240000   -0.000000   -0.000000
  Ca>   -3.120000   -3.215000   -2.100000
  Ca>    3.120000   -3.215000   -2.100000
  Ca>    6.240000    0.000000    0.000000
  Ca>   -0.000000   -6.430000    0.000000
  Ca>   -3.120000    3.215000   -6.300000
  Ca>   -0.000000    6.430000   -4.200000
  Ca>    3.120000    3.215000   -6.300000
  Ca>   -6.240000    0.000000   -4.200000
  Ca>   -3.120000   -3.215000   -6.300000
  Ca>   -0.000000    0.000000   -4.200000
  Ca>    3.120000   -3.215000   -6.300000
  Ca>    6.240000    0.000000   -4.200000
  Ca>   -0.000000   -6.430000   -4.200000
  Cl>    1.404000    1.125000    6.300000
  Cl>   -1.404000   -1.125000    6.300000
  Cl>    1.404000    7.555000    2.100000
  Cl>   -4.524000    4.340000    4.200000
  Cl>   -1.716000    2.090000    4.200000
  Cl>   -4.836000    1.125000    2.100000
  Cl>   -1.404000    5.305000    2.100000
  Cl>    1.716000    4.340000    4.200000
  Cl>    4.524000    2.090000    4.200000
  Cl>    4.836000    5.305000    2.100000
  Cl>   -4.524000   -2.090000    4.200000
  Cl>   -1.716000   -4.340000    4.200000
  Cl>   -4.836000   -5.305000    2.100000
  Cl>    1.716000   -2.090000    4.200000
  Cl>    4.524000   -4.340000    4.200000
  Cl>    1.404000   -5.305000    2.100000
  Cl>    4.836000   -1.125000    2.100000
  Cl>   -1.404000   -7.555000    2.100000
  Cl>    1.404000    7.555000   -2.100000
  Cl>   -4.524000    4.340000   -0.000000
  Cl>   -4.836000    1.125000   -2.100000
  Cl>   -1.404000    5.305000   -2.100000
  Cl>    1.716000    4.340000   -0.000000
  Cl>    4.524000    2.090000    0.000000
  Cl>    4.836000    5.305000   -2.100000
  Cl>   -4.524000   -2.090000   -0.000000
  Cl>   -1.716000   -4.340000    0.000000
  Cl>   -4.836000   -5.305000   -2.100000
  Cl>    4.524000   -4.340000    0.000000
  Cl>    1.404000   -5.305000   -2.100000
  Cl>    4.836000   -1.125000   -2.100000
  Cl>   -1.404000   -7.555000   -2.100000
  Cl>   -4.524000    4.340000   -4.200000
  Cl>   -1.716000    2.090000   -4.200000
  Cl>    1.716000    4.340000   -4.200000
  Cl>    4.524000    2.090000   -4.200000
  Cl>    1.404000    1.125000   -6.300000
  Cl>   -4.524000   -2.090000   -4.200000
  Cl>   -1.716000   -4.340000   -4.200000
  Cl>   -1.404000   -1.125000   -6.300000
  Cl>    1.716000   -2.090000   -4.200000
  Cl>    4.524000   -4.340000   -4.200000

----------------------------
CARTESIAN COORDINATES (A.U.)
----------------------------
  NO LB      ZA    FRAG     MASS         X           Y           Z
   0 Ca   20.0000    0    40.080    0.000000    0.000000    0.000000
   1 Cl   17.0000    0    35.453    2.653175    2.125942    3.968425
   2 Cl   17.0000    0    35.453   -2.653175   -2.125942    3.968425
   3 Cl   17.0000    0    35.453   -3.242770    3.949528    0.000000
   4 Cl   17.0000    0    35.453    2.653175    2.125942   -3.968425
   5 Cl   17.0000    0    35.453   -2.653175   -2.125942   -3.968425
   6 Cl   17.0000    0    35.453    3.242770   -3.949528   -0.000000
   7 Ca>   1.8257    0     0.000   -5.895946    6.075470   11.905275
   8 Ca>   1.8257    0     0.000    5.895946    6.075470   11.905275
   9 Ca>   1.8257    0     0.000   -5.895946   -6.075470   11.905275
  10 Ca>   1.8257    0     0.000    5.895946   -6.075470   11.905275
  11 Ca>   1.8257    0     0.000   -5.895946    6.075470    3.968425
  12 Ca>   1.8257    0     0.000    0.000000   12.150939    7.936850
  13 Ca>   1.8257    0     0.000    5.895946    6.075470    3.968425
  14 Ca>   1.8257    0     0.000  -11.791891   -0.000000    7.936850
  15 Ca>   1.8257    0     0.000   -5.895946   -6.075470    3.968425
  16 Ca>   1.8257    0     0.000    0.000000   -0.000000    7.936850
  17 Ca>   1.8257    0     0.000    5.895946   -6.075470    3.968425
  18 Ca>   1.8257    0     0.000   11.791891   -0.000000    7.936850
  19 Ca>   1.8257    0     0.000    0.000000  -12.150939    7.936850
  20 Ca>   1.8257    0     0.000   -5.895946    6.075470   -3.968425
  21 Ca>   1.8257    0     0.000    0.000000   12.150939   -0.000000
  22 Ca>   1.8257    0     0.000    5.895946    6.075470   -3.968425
  23 Ca>   1.8257    0     0.000  -11.791891   -0.000000   -0.000000
  24 Ca>   1.8257    0     0.000   -5.895946   -6.075470   -3.968425
  25 Ca>   1.8257    0     0.000    5.895946   -6.075470   -3.968425
  26 Ca>   1.8257    0     0.000   11.791891    0.000000    0.000000
  27 Ca>   1.8257    0     0.000   -0.000000  -12.150939    0.000000
  28 Ca>   1.8257    0     0.000   -5.895946    6.075470  -11.905275
  29 Ca>   1.8257    0     0.000   -0.000000   12.150939   -7.936850
  30 Ca>   1.8257    0     0.000    5.895946    6.075470  -11.905275
  31 Ca>   1.8257    0     0.000  -11.791891    0.000000   -7.936850
  32 Ca>   1.8257    0     0.000   -5.895946   -6.075470  -11.905275
  33 Ca>   1.8257    0     0.000   -0.000000    0.000000   -7.936850
  34 Ca>   1.8257    0     0.000    5.895946   -6.075470  -11.905275
  35 Ca>   1.8257    0     0.000   11.791891    0.000000   -7.936850
  36 Ca>   1.8257    0     0.000   -0.000000  -12.150939   -7.936850
  37 Cl>  -0.9109    0     0.000    2.653175    2.125942   11.905275
  38 Cl>  -0.9109    0     0.000   -2.653175   -2.125942   11.905275
  39 Cl>  -0.9109    0     0.000    2.653175   14.276881    3.968425
  40 Cl>  -0.9109    0     0.000   -8.549121    8.201411    7.936850
  41 Cl>  -0.9109    0     0.000   -3.242770    3.949528    7.936850
  42 Cl>  -0.9109    0     0.000   -9.138716    2.125942    3.968425
  43 Cl>  -0.9109    0     0.000   -2.653175   10.024997    3.968425
  44 Cl>  -0.9109    0     0.000    3.242770    8.201411    7.936850
  45 Cl>  -0.9109    0     0.000    8.549121    3.949528    7.936850
  46 Cl>  -0.9109    0     0.000    9.138716   10.024997    3.968425
  47 Cl>  -0.9109    0     0.000   -8.549121   -3.949528    7.936850
  48 Cl>  -0.9109    0     0.000   -3.242770   -8.201411    7.936850
  49 Cl>  -0.9109    0     0.000   -9.138716  -10.024997    3.968425
  50 Cl>  -0.9109    0     0.000    3.242770   -3.949528    7.936850
  51 Cl>  -0.9109    0     0.000    8.549121   -8.201411    7.936850
  52 Cl>  -0.9109    0     0.000    2.653175  -10.024997    3.968425
  53 Cl>  -0.9109    0     0.000    9.138716   -2.125942    3.968425
  54 Cl>  -0.9109    0     0.000   -2.653175  -14.276881    3.968425
  55 Cl>  -0.9109    0     0.000    2.653175   14.276881   -3.968425
  56 Cl>  -0.9109    0     0.000   -8.549121    8.201411   -0.000000
  57 Cl>  -0.9109    0     0.000   -9.138716    2.125942   -3.968425
  58 Cl>  -0.9109    0     0.000   -2.653175   10.024997   -3.968425
  59 Cl>  -0.9109    0     0.000    3.242770    8.201411   -0.000000
  60 Cl>  -0.9109    0     0.000    8.549121    3.949528    0.000000
  61 Cl>  -0.9109    0     0.000    9.138716   10.024997   -3.968425
  62 Cl>  -0.9109    0     0.000   -8.549121   -3.949528   -0.000000
  63 Cl>  -0.9109    0     0.000   -3.242770   -8.201411    0.000000
  64 Cl>  -0.9109    0     0.000   -9.138716  -10.024997   -3.968425
  65 Cl>  -0.9109    0     0.000    8.549121   -8.201411    0.000000
  66 Cl>  -0.9109    0     0.000    2.653175  -10.024997   -3.968425
  67 Cl>  -0.9109    0     0.000    9.138716   -2.125942   -3.968425
  68 Cl>  -0.9109    0     0.000   -2.653175  -14.276881   -3.968425
  69 Cl>  -0.9109    0     0.000   -8.549121    8.201411   -7.936850
  70 Cl>  -0.9109    0     0.000   -3.242770    3.949528   -7.936850
  71 Cl>  -0.9109    0     0.000    3.242770    8.201411   -7.936850
  72 Cl>  -0.9109    0     0.000    8.549121    3.949528   -7.936850
  73 Cl>  -0.9109    0     0.000    2.653175    2.125942  -11.905275
  74 Cl>  -0.9109    0     0.000   -8.549121   -3.949528   -7.936850
  75 Cl>  -0.9109    0     0.000   -3.242770   -8.201411   -7.936850
  76 Cl>  -0.9109    0     0.000   -2.653175   -2.125942  -11.905275
  77 Cl>  -0.9109    0     0.000    3.242770   -3.949528   -7.936850
  78 Cl>  -0.9109    0     0.000    8.549121   -8.201411   -7.936850
> coreless ECP center with (optional) point charge

--------------------------------
INTERNAL COORDINATES (ANGSTROEM)
--------------------------------
 Ca     0   0   0     0.000000000000     0.00000000     0.00000000
 Cl     1   0   0     2.765292208791     0.00000000     0.00000000
 Cl     1   2   0     2.765292208791    81.17497377     0.00000000
 Cl     1   2   3     2.704210790600    90.44450661    89.48113845
 Cl     1   2   3     2.765292208791    98.82502623   180.00000000
 Cl     1   2   3     2.765292208791   180.00000000     0.00000000
 Cl     1   2   3     2.704210790600    89.55549339   269.48113845
 Ca>    3   1   2     6.278555247826   111.44168384    49.74288508
 Ca>    2   1   3     4.995273365893   169.46432490   322.34604913
 Ca>    3   1   2     4.995273365893   169.46432490   322.34604913
 Ca>   10   3   1     6.240000000000    69.90823341   351.85664780
 Ca>    4   1   2     2.765292208791   129.53936907   309.38980250
 Ca>    8   3   1     4.947789910657    89.59271940   346.28655387
 Ca>    2   1   3     2.704210790600   129.53936907   195.51878875
 Ca>    8   3   1     4.947789910657    55.89343983   127.31332168
 Ca>    3   1   2     2.704210790600   129.53936907   195.51878875
 Ca>    2   1   3     2.765292208791    98.82502623     0.00000000
 Ca>    7   1   2     2.765292208791   129.53936907    30.56075084
 Ca>    9   2  14     4.947789910657    65.66280550   279.09110682
 Ca>   10   3  16     4.947789910657    72.44540584    70.67137160
 Ca>    4   1   2     2.765292208791   129.53936907   149.43924916
 Ca>   13   8   3     4.200000000000   115.11471146    42.65259033
 Ca>    5   1   2     2.704210790600   129.53936907   344.48121125
 Ca>   15   8   3     4.200000000000   115.11471146   305.08683169
 Ca>    6   1   4     2.704210790600   129.53936907   255.00007280
 Ca>    7   1   2     2.765292208791   129.53936907   230.61019750
 Ca>   19   9   2     4.200000000000   115.11471146    36.18305573
 Ca>   20  10   3     4.200000000000   115.11471146   325.65474381
 Ca>   21   4   1     4.200000000000   139.41251311   344.48121125
 Ca>   22  13   8     4.200000000000   179.99999915     0.00000000
 Ca>   23   5   1     4.200000000000    90.00000000   190.02472333
 Ca>   24  15   8     4.200000000000   179.99999915     0.00000000
 Ca>   25   6   1     4.200000000000    90.00000000   190.02472333
 Ca>    5   1   2     2.765292208791    98.82502623   180.00000000
 Ca>   26   7   1     4.200000000000   139.41251311   344.48121125
 Ca>   27  19   9     4.200000000000   179.99999915     0.00000000
 Ca>   28  20  10     4.200000000000   179.99999915     0.00000000
 Cl>    9   2  14     2.704210790600    57.22414669   180.00000000
 Cl>   10   3  16     2.704210790600    57.22414669   180.00000000
 Cl>   13   8   3     2.765292208791   155.07118989    31.56856923
 Cl>    8   3   1     2.765292208791    84.95019377    60.80513752
 Cl>   17   2   1     2.704210790600    90.44450661   270.51886155
 Cl>   12   4   1     2.704210790600    90.44450661   284.99992720
 Cl>   12   4   1     2.704210790600    89.55549339   104.99992720
 Cl>   13   8   3     2.704210790600    84.14270635   315.40884896
 Cl>   19   9   2     2.704210790600    25.53182081    47.26707683
 Cl>   14   2   1     2.704210790600   180.00000000     0.00000000
 Cl>   15   8   3     2.704210790600    95.85729365    37.84309032
 Cl>   20  10   3     2.704210790600    25.53182081   336.73876491
 Cl>   16   3   1     2.704210790600   180.00000000     0.00000000
 Cl>   17   2   1     2.704210790600    89.55549339    90.51886155
 Cl>   11  10   3     2.765292208791   120.51221952   305.36559744
 Cl>   18   7   1     2.704210790600    89.55549339   104.99992720
 Cl>   18   7   1     2.704210790600    90.44450661   284.99992720
 Cl>   20  10   3     2.765292208791   105.45662078   283.43420454
 Cl>   22  13   8     2.765292208791   139.41251311   187.15457561
 Cl>   12   4   1     2.765292208791    81.17497377   195.51878875
 Cl>   21   4   1     2.704210790600    90.44450661    75.00007280
 Cl>   21   4   1     2.704210790600    89.55549339   255.00007280
 Cl>   22  13   8     2.704210790600    90.00000000   276.47134942
 Cl>   27  19   9     2.704210790600    90.00000000     4.75305704
 Cl>   23   5   1     2.704210790600   180.00000000     0.00000000
 Cl>   24  15   8     2.704210790600    90.00000000    96.47134942
 Cl>   28  20  10     2.704210790600    90.00000000     4.75305704
 Cl>   25   6   1     2.704210790600   180.00000000     0.00000000
 Cl>   18   7   1     2.765292208791    81.17497377   195.51878875
 Cl>   26   7   1     2.704210790600    89.55549339   255.00007280
 Cl>   26   7   1     2.704210790600    90.44450661    75.00007280
 Cl>   28  20  10     2.765292208791   139.41251311   275.43628324
 Cl>   29  21   4     2.765292208791    40.58748689   180.00000085
 Cl>   34   5   1     2.704210790600    90.44450661    89.48113845
 Cl>   30  22  60     2.704210790600    90.00000000     0.00000000
 Cl>   36  27  61     2.704210790600    90.00000000     0.00000000
 Cl>   31  23   5     2.704210790600    90.00000000     0.00000000
 Cl>   32  24  63     2.704210790600    90.00000000     0.00000000
 Cl>   37  28  64     2.704210790600    90.00000000     0.00000000
 Cl>   33  25   6     2.704210790600    90.00000000     0.00000000
 Cl>   34   5   1     2.704210790600    89.55549339   269.48113845
 Cl>   35  26   7     2.765292208791    40.58748689   180.00000085

---------------------------
INTERNAL COORDINATES (A.U.)
---------------------------
 Ca     0   0   0     0.000000000000     0.00000000     0.00000000
 Cl     1   0   0     5.225644954881     0.00000000     0.00000000
 Cl     1   2   0     5.225644954881    81.17497377     0.00000000
 Cl     1   2   3     5.110217802630    90.44450661    89.48113845
 Cl     1   2   3     5.225644954881    98.82502623   180.00000000
 Cl     1   2   3     5.225644954881   180.00000000     0.00000000
 Cl     1   2   3     5.110217802630    89.55549339   269.48113845
 Ca>    3   1   2    11.864749935085   111.44168384    49.74288508
 Ca>    2   1   3     9.439698625609   169.46432490   322.34604913
 Ca>    3   1   2     9.439698625609   169.46432490   322.34604913
 Ca>   10   3   1    11.791891075669    69.90823341   351.85664780
 Ca>    4   1   2     5.225644954881   129.53936907   309.38980250
 Ca>    8   3   1     9.349967899321    89.59271940   346.28655387
 Ca>    2   1   3     5.110217802630   129.53936907   195.51878875
 Ca>    8   3   1     9.349967899321    55.89343983   127.31332168
 Ca>    3   1   2     5.110217802630   129.53936907   195.51878875
 Ca>    2   1   3     5.225644954881    98.82502623     0.00000000
 Ca>    7   1   2     5.225644954881   129.53936907    30.56075084
 Ca>    9   2  14     9.349967899321    65.66280550   279.09110682
 Ca>   10   3  16     9.349967899321    72.44540584    70.67137160
 Ca>    4   1   2     5.225644954881   129.53936907   149.43924916
 Ca>   13   8   3     7.936849762469   115.11471146    42.65259033
 Ca>    5   1   2     5.110217802630   129.53936907   344.48121125
 Ca>   15   8   3     7.936849762469   115.11471146   305.08683169
 Ca>    6   1   4     5.110217802630   129.53936907   255.00007280
 Ca>    7   1   2     5.225644954881   129.53936907   230.61019750
 Ca>   19   9   2     7.936849762469   115.11471146    36.18305573
 Ca>   20  10   3     7.936849762469   115.11471146   325.65474381
 Ca>   21   4   1     7.936849762469   139.41251311   344.48121125
 Ca>   22  13   8     7.936849762469   179.99999915     0.00000000
 Ca>   23   5   1     7.936849762469    90.00000000   190.02472333
 Ca>   24  15   8     7.936849762469   179.99999915     0.00000000
 Ca>   25   6   1     7.936849762469    90.00000000   190.02472333
 Ca>    5   1   2     5.225644954881    98.82502623   180.00000000
 Ca>   26   7   1     7.936849762469   139.41251311   344.48121125
 Ca>   27  19   9     7.936849762469   179.99999915     0.00000000
 Ca>   28  20  10     7.936849762469   179.99999915     0.00000000
 Cl>    9   2  14     5.110217802630    57.22414669   180.00000000
 Cl>   10   3  16     5.110217802630    57.22414669   180.00000000
 Cl>   13   8   3     5.225644954881   155.07118989    31.56856923
 Cl>    8   3   1     5.225644954881    84.95019377    60.80513752
 Cl>   17   2   1     5.110217802630    90.44450661   270.51886155
 Cl>   12   4   1     5.110217802630    90.44450661   284.99992720
 Cl>   12   4   1     5.110217802630    89.55549339   104.99992720
 Cl>   13   8   3     5.110217802630    84.14270635   315.40884896
 Cl>   19   9   2     5.110217802630    25.53182081    47.26707683
 Cl>   14   2   1     5.110217802630   180.00000000     0.00000000
 Cl>   15   8   3     5.110217802630    95.85729365    37.84309032
 Cl>   20  10   3     5.110217802630    25.53182081   336.73876491
 Cl>   16   3   1     5.110217802630   180.00000000     0.00000000
 Cl>   17   2   1     5.110217802630    89.55549339    90.51886155
 Cl>   11  10   3     5.225644954881   120.51221952   305.36559744
 Cl>   18   7   1     5.110217802630    89.55549339   104.99992720
 Cl>   18   7   1     5.110217802630    90.44450661   284.99992720
 Cl>   20  10   3     5.225644954881   105.45662078   283.43420454
 Cl>   22  13   8     5.225644954881   139.41251311   187.15457561
 Cl>   12   4   1     5.225644954881    81.17497377   195.51878875
 Cl>   21   4   1     5.110217802630    90.44450661    75.00007280
 Cl>   21   4   1     5.110217802630    89.55549339   255.00007280
 Cl>   22  13   8     5.110217802630    90.00000000   276.47134942
 Cl>   27  19   9     5.110217802630    90.00000000     4.75305704
 Cl>   23   5   1     5.110217802630   180.00000000     0.00000000
 Cl>   24  15   8     5.110217802630    90.00000000    96.47134942
 Cl>   28  20  10     5.110217802630    90.00000000     4.75305704
 Cl>   25   6   1     5.110217802630   180.00000000     0.00000000
 Cl>   18   7   1     5.225644954881    81.17497377   195.51878875
 Cl>   26   7   1     5.110217802630    89.55549339   255.00007280
 Cl>   26   7   1     5.110217802630    90.44450661    75.00007280
 Cl>   28  20  10     5.225644954881   139.41251311   275.43628324
 Cl>   29  21   4     5.225644954881    40.58748689   180.00000085
 Cl>   34   5   1     5.110217802630    90.44450661    89.48113845
 Cl>   30  22  60     5.110217802630    90.00000000     0.00000000
 Cl>   36  27  61     5.110217802630    90.00000000     0.00000000
 Cl>   31  23   5     5.110217802630    90.00000000     0.00000000
 Cl>   32  24  63     5.110217802630    90.00000000     0.00000000
 Cl>   37  28  64     5.110217802630    90.00000000     0.00000000
 Cl>   33  25   6     5.110217802630    90.00000000     0.00000000
 Cl>   34   5   1     5.110217802630    89.55549339   269.48113845
 Cl>   35  26   7     5.225644954881    40.58748689   180.00000085

---------------------
BASIS SET INFORMATION
---------------------
There are 3 groups of distinct atoms

 Group   1 Type Ca  : 17s12p4d contracted to 10s7p3d pattern {8111111111/6111111/211}
 Group   2 Type Cl  : 14s9p3d1f contracted to 8s4p2d1f pattern {71111111/6111/21/1}
 Group   3 Type Q,> :  contracted to  pattern {}

Atom   0Ca   basis set group =>   1
Atom   1Cl   basis set group =>   2
Atom   2Cl   basis set group =>   2
Atom   3Cl   basis set group =>   2
Atom   4Cl   basis set group =>   2
Atom   5Cl   basis set group =>   2
Atom   6Cl   basis set group =>   2
Atom   7Ca>  basis set group =>   3
Atom   8Ca>  basis set group =>   3
Atom   9Ca>  basis set group =>   3
Atom  10Ca>  basis set group =>   3
Atom  11Ca>  basis set group =>   3
Atom  12Ca>  basis set group =>   3
Atom  13Ca>  basis set group =>   3
Atom  14Ca>  basis set group =>   3
Atom  15Ca>  basis set group =>   3
Atom  16Ca>  basis set group =>   3
Atom  17Ca>  basis set group =>   3
Atom  18Ca>  basis set group =>   3
Atom  19Ca>  basis set group =>   3
Atom  20Ca>  basis set group =>   3
Atom  21Ca>  basis set group =>   3
Atom  22Ca>  basis set group =>   3
Atom  23Ca>  basis set group =>   3
Atom  24Ca>  basis set group =>   3
Atom  25Ca>  basis set group =>   3
Atom  26Ca>  basis set group =>   3
Atom  27Ca>  basis set group =>   3
Atom  28Ca>  basis set group =>   3
Atom  29Ca>  basis set group =>   3
Atom  30Ca>  basis set group =>   3
Atom  31Ca>  basis set group =>   3
Atom  32Ca>  basis set group =>   3
Atom  33Ca>  basis set group =>   3
Atom  34Ca>  basis set group =>   3
Atom  35Ca>  basis set group =>   3
Atom  36Ca>  basis set group =>   3
Atom  37Cl>  basis set group =>   3
Atom  38Cl>  basis set group =>   3
Atom  39Cl>  basis set group =>   3
Atom  40Cl>  basis set group =>   3
Atom  41Cl>  basis set group =>   3
Atom  42Cl>  basis set group =>   3
Atom  43Cl>  basis set group =>   3
Atom  44Cl>  basis set group =>   3
Atom  45Cl>  basis set group =>   3
Atom  46Cl>  basis set group =>   3
Atom  47Cl>  basis set group =>   3
Atom  48Cl>  basis set group =>   3
Atom  49Cl>  basis set group =>   3
Atom  50Cl>  basis set group =>   3
Atom  51Cl>  basis set group =>   3
Atom  52Cl>  basis set group =>   3
Atom  53Cl>  basis set group =>   3
Atom  54Cl>  basis set group =>   3
Atom  55Cl>  basis set group =>   3
Atom  56Cl>  basis set group =>   3
Atom  57Cl>  basis set group =>   3
Atom  58Cl>  basis set group =>   3
Atom  59Cl>  basis set group =>   3
Atom  60Cl>  basis set group =>   3
Atom  61Cl>  basis set group =>   3
Atom  62Cl>  basis set group =>   3
Atom  63Cl>  basis set group =>   3
Atom  64Cl>  basis set group =>   3
Atom  65Cl>  basis set group =>   3
Atom  66Cl>  basis set group =>   3
Atom  67Cl>  basis set group =>   3
Atom  68Cl>  basis set group =>   3
Atom  69Cl>  basis set group =>   3
Atom  70Cl>  basis set group =>   3
Atom  71Cl>  basis set group =>   3
Atom  72Cl>  basis set group =>   3
Atom  73Cl>  basis set group =>   3
Atom  74Cl>  basis set group =>   3
Atom  75Cl>  basis set group =>   3
Atom  76Cl>  basis set group =>   3
Atom  77Cl>  basis set group =>   3
Atom  78Cl>  basis set group =>   3
-------------------------------
AUXILIARY BASIS SET INFORMATION
-------------------------------
There are 3 groups of distinct atoms

 Group   1 Type Ca  : 19s5p5d3f1g contracted to 19s5p5d3f1g pattern {1111111111111111111/11111/11111/111/1}
 Group   2 Type Cl  : 14s5p5d2f1g contracted to 14s5p5d2f1g pattern {11111111111111/11111/11111/11/1}
 Group   3 Type Q,> :  contracted to  pattern {}

Atom   0Ca   basis set group =>   1
Atom   1Cl   basis set group =>   2
Atom   2Cl   basis set group =>   2
Atom   3Cl   basis set group =>   2
Atom   4Cl   basis set group =>   2
Atom   5Cl   basis set group =>   2
Atom   6Cl   basis set group =>   2
Atom   7Ca>  basis set group =>   3
Atom   8Ca>  basis set group =>   3
Atom   9Ca>  basis set group =>   3
Atom  10Ca>  basis set group =>   3
Atom  11Ca>  basis set group =>   3
Atom  12Ca>  basis set group =>   3
Atom  13Ca>  basis set group =>   3
Atom  14Ca>  basis set group =>   3
Atom  15Ca>  basis set group =>   3
Atom  16Ca>  basis set group =>   3
Atom  17Ca>  basis set group =>   3
Atom  18Ca>  basis set group =>   3
Atom  19Ca>  basis set group =>   3
Atom  20Ca>  basis set group =>   3
Atom  21Ca>  basis set group =>   3
Atom  22Ca>  basis set group =>   3
Atom  23Ca>  basis set group =>   3
Atom  24Ca>  basis set group =>   3
Atom  25Ca>  basis set group =>   3
Atom  26Ca>  basis set group =>   3
Atom  27Ca>  basis set group =>   3
Atom  28Ca>  basis set group =>   3
Atom  29Ca>  basis set group =>   3
Atom  30Ca>  basis set group =>   3
Atom  31Ca>  basis set group =>   3
Atom  32Ca>  basis set group =>   3
Atom  33Ca>  basis set group =>   3
Atom  34Ca>  basis set group =>   3
Atom  35Ca>  basis set group =>   3
Atom  36Ca>  basis set group =>   3
Atom  37Cl>  basis set group =>   3
Atom  38Cl>  basis set group =>   3
Atom  39Cl>  basis set group =>   3
Atom  40Cl>  basis set group =>   3
Atom  41Cl>  basis set group =>   3
Atom  42Cl>  basis set group =>   3
Atom  43Cl>  basis set group =>   3
Atom  44Cl>  basis set group =>   3
Atom  45Cl>  basis set group =>   3
Atom  46Cl>  basis set group =>   3
Atom  47Cl>  basis set group =>   3
Atom  48Cl>  basis set group =>   3
Atom  49Cl>  basis set group =>   3
Atom  50Cl>  basis set group =>   3
Atom  51Cl>  basis set group =>   3
Atom  52Cl>  basis set group =>   3
Atom  53Cl>  basis set group =>   3
Atom  54Cl>  basis set group =>   3
Atom  55Cl>  basis set group =>   3
Atom  56Cl>  basis set group =>   3
Atom  57Cl>  basis set group =>   3
Atom  58Cl>  basis set group =>   3
Atom  59Cl>  basis set group =>   3
Atom  60Cl>  basis set group =>   3
Atom  61Cl>  basis set group =>   3
Atom  62Cl>  basis set group =>   3
Atom  63Cl>  basis set group =>   3
Atom  64Cl>  basis set group =>   3
Atom  65Cl>  basis set group =>   3
Atom  66Cl>  basis set group =>   3
Atom  67Cl>  basis set group =>   3
Atom  68Cl>  basis set group =>   3
Atom  69Cl>  basis set group =>   3
Atom  70Cl>  basis set group =>   3
Atom  71Cl>  basis set group =>   3
Atom  72Cl>  basis set group =>   3
Atom  73Cl>  basis set group =>   3
Atom  74Cl>  basis set group =>   3
Atom  75Cl>  basis set group =>   3
Atom  76Cl>  basis set group =>   3
Atom  77Cl>  basis set group =>   3
Atom  78Cl>  basis set group =>   3
-------------------------
ECP PARAMETER INFORMATION
-------------------------

 Group 1, Type Ca ECP SD(10,MWB) (replacing 10 core electrons, lmax=4)
 Group 2, Type Cl ECP SD(10,MWB) (replacing 10 core electrons, lmax=3)

Atom   7Ca>  ECP group =>   1
Atom   8Ca>  ECP group =>   1
Atom   9Ca>  ECP group =>   1
Atom  10Ca>  ECP group =>   1
Atom  11Ca>  ECP group =>   1
Atom  12Ca>  ECP group =>   1
Atom  13Ca>  ECP group =>   1
Atom  14Ca>  ECP group =>   1
Atom  15Ca>  ECP group =>   1
Atom  16Ca>  ECP group =>   1
Atom  17Ca>  ECP group =>   1
Atom  18Ca>  ECP group =>   1
Atom  19Ca>  ECP group =>   1
Atom  20Ca>  ECP group =>   1
Atom  21Ca>  ECP group =>   1
Atom  22Ca>  ECP group =>   1
Atom  23Ca>  ECP group =>   1
Atom  24Ca>  ECP group =>   1
Atom  25Ca>  ECP group =>   1
Atom  26Ca>  ECP group =>   1
Atom  27Ca>  ECP group =>   1
Atom  28Ca>  ECP group =>   1
Atom  29Ca>  ECP group =>   1
Atom  30Ca>  ECP group =>   1
Atom  31Ca>  ECP group =>   1
Atom  32Ca>  ECP group =>   1
Atom  33Ca>  ECP group =>   1
Atom  34Ca>  ECP group =>   1
Atom  35Ca>  ECP group =>   1
Atom  36Ca>  ECP group =>   1
Atom  37Cl>  ECP group =>   2
Atom  38Cl>  ECP group =>   2
Atom  39Cl>  ECP group =>   2
Atom  40Cl>  ECP group =>   2
Atom  41Cl>  ECP group =>   2
Atom  42Cl>  ECP group =>   2
Atom  43Cl>  ECP group =>   2
Atom  44Cl>  ECP group =>   2
Atom  45Cl>  ECP group =>   2
Atom  46Cl>  ECP group =>   2
Atom  47Cl>  ECP group =>   2
Atom  48Cl>  ECP group =>   2
Atom  49Cl>  ECP group =>   2
Atom  50Cl>  ECP group =>   2
Atom  51Cl>  ECP group =>   2
Atom  52Cl>  ECP group =>   2
Atom  53Cl>  ECP group =>   2
Atom  54Cl>  ECP group =>   2
Atom  55Cl>  ECP group =>   2
Atom  56Cl>  ECP group =>   2
Atom  57Cl>  ECP group =>   2
Atom  58Cl>  ECP group =>   2
Atom  59Cl>  ECP group =>   2
Atom  60Cl>  ECP group =>   2
Atom  61Cl>  ECP group =>   2
Atom  62Cl>  ECP group =>   2
Atom  63Cl>  ECP group =>   2
Atom  64Cl>  ECP group =>   2
Atom  65Cl>  ECP group =>   2
Atom  66Cl>  ECP group =>   2
Atom  67Cl>  ECP group =>   2
Atom  68Cl>  ECP group =>   2
Atom  69Cl>  ECP group =>   2
Atom  70Cl>  ECP group =>   2
Atom  71Cl>  ECP group =>   2
Atom  72Cl>  ECP group =>   2
Atom  73Cl>  ECP group =>   2
Atom  74Cl>  ECP group =>   2
Atom  75Cl>  ECP group =>   2
Atom  76Cl>  ECP group =>   2
Atom  77Cl>  ECP group =>   2
Atom  78Cl>  ECP group =>   2



           ************************************************************
           *        Program running with 12 parallel MPI-processes    *
           *              working on a common directory               *
           ************************************************************
------------------------------------------------------------------------------
                           ORCA GTO INTEGRAL CALCULATION
                           -- RI-GTO INTEGRALS CHOSEN --
------------------------------------------------------------------------------

                         BASIS SET STATISTICS AND STARTUP INFO

Gaussian basis set:
 # of primitive gaussian shells          ...  195
 # of primitive gaussian functions       ...  451
 # of contracted shells                  ...  110
 # of contracted basis functions         ...  268
 Highest angular momentum                ...    3
 Maximum contraction depth               ...    8
Auxiliary gaussian basis set:
 # of primitive gaussian shells          ...  195
 # of primitive gaussian functions       ...  551
 # of contracted shells                  ...  195
 # of contracted aux-basis functions     ...  551
 Highest angular momentum                ...    4
 Maximum contraction depth               ...    1
Ratio of auxiliary to basis functions    ...  2.06
Integral package used                  ... LIBINT
 One Electron integrals                  
   ECP integrals                         ... done
 Ordering auxiliary basis shells         ... done
 Integral threshhold             Thresh  ...  2.500e-11
 Primitive cut-off               TCut    ...  2.500e-12
 Pre-screening matrix                    ... done
 Shell pair data                         ... 
 Ordering of the shell pairs             ... done (   0.001 sec) 4184 of 6105 pairs
 Determination of significant pairs      ... done (   0.000 sec)
 Creation of shell pair data             ... done (   0.001 sec)
 Storage of shell pair data              ... done (   0.044 sec)
 Shell pair data done in (   0.046 sec)
 Computing two index integrals           ... done
 Cholesky decomposition of the V-matrix  ... done


Timings:
 Total evaluation time                   ...   5.144 sec (  0.086 min)
 One electron matrix time                ...   4.615 sec (  0.077 min) = 89.7%
 Schwartz matrix evaluation time         ...   0.339 sec (  0.006 min) =  6.6%
 Two index repulsion integral time       ...   0.049 sec (  0.001 min) =  1.0%
 Cholesky decomposition of V             ...   0.061 sec (  0.001 min) =  1.2%
 Three index repulsion integral time     ...   0.000 sec (  0.000 min) =  0.0%

ENUC WAS=  0.000000000


           ************************************************************
           *        Program running with 12 parallel MPI-processes    *
           *              working on a common directory               *
           ************************************************************
------------------------------------------------------------------------------
                            ORCA POINT-CHARGE CORRECTION
------------------------------------------------------------------------------

BaseName                           ... cl2_pc1_dbz
Point charge file                  ... pc.pc

Reading the GBW file               ... done
Reading the one-electron matrix    ... done
Reading the point charges          ... done
Number of point charges            ... 18538
Reading the nuclear-repulsion      ... done
Charge-Nuclei interaction          ... done
The nuclear repulsion file was updated
Doing the point charge correction  ... done
Storing the one-electron matrix    ... done

ENUC IS = 1006.010144985


           ************************************************************
           *        Program running with 12 parallel MPI-processes    *
           *              working on a common directory               *
           ************************************************************
------------------------------------------------------------------------------
                          ORCA RELATIVISTIC HAMILTONIAN
------------------------------------------------------------------------------

Relativistic Method            ... ZORA(MP)
Treatment of potential         ... Van Wuellen
Nucleus model                  ... Point Nucleus
Speed of light used            ... 137.03598950000000


            *************************************************
            *         ZERO ORDER REGULAR APPROXIMATION      *
            *                     ZORA(MP)                  *
            *            Programmed by FN according to      *
            *                   C. van Wuellen              *
            *       J. Chem. Phys. (1998) vol 109, 392-399  *
            *************************************************

Terms included in model potential: +V(e,N)+V(C)+V(Xa)+V(VWN-V)
Basis function cutoff value   ... 1.000000e-11
Loading the fitted atomic densities (ZORA)   ... done
Calculating the cutoffs                      ... done
Number of fit functions                      ... 114
Setting up the integration grid ... SpecialGrid => Setting IntAcc for atom type =  20 to   7.0000
done


           ************************************************************
           *        Program running with 12 parallel MPI-processes    *
           *              working on a common directory               *
           ************************************************************
-------------------------------------------------------------------------------
                                 ORCA SCF
-------------------------------------------------------------------------------

------------
SCF SETTINGS
------------
Hamiltonian:
 Density Functional     Method          .... DFT(GTOs)
 Exchange Functional    Exchange        .... B88
   X-Alpha parameter    XAlpha          ....  0.666667
   Becke's b parameter  XBeta           ....  0.004200
 Correlation Functional Correlation     .... P86
 LDA part of GGA corr.  LDAOpt          .... PW91-LDA
 Gradients option       PostSCFGGA      .... off
   Density functional embedding theory  .... OFF
 RI-approximation to the Coulomb term is turned on
   Number of auxiliary basis functions  .... 551

Relativistic Settings:
 Scalar relativistic method             .... ZORA
 Speed of light used       Velit        ....       137.035989
Orbital energies will be scaled


General Settings:
 Integral files         IntName         .... cl2_pc1_dbz
 Hartree-Fock type      HFTyp           .... RHF
 Total Charge           Charge          ....   -4
 Multiplicity           Mult            ....    1
 Number of Electrons    NEL             ....  126
 Basis Dimension        Dim             ....  268
 Nuclear Repulsion      ENuc            ....   1006.0101449849 Eh

Convergence Acceleration:
 DIIS                   CNVDIIS         .... on
   Start iteration      DIISMaxIt       ....     0
   Startup error        DIISStart       ....  0.200000
   # of expansion vecs  DIISMaxEq       ....     5
   Bias factor          DIISBfac        ....   1.050
   Max. coefficient     DIISMaxC        ....  10.000
 Newton-Raphson         CNVNR           .... off
 SOSCF                  CNVSOSCF        .... on
   Start iteration      SOSCFMaxIt      ....   150
   Startup grad/error   SOSCFStart      ....  0.001000
 Level Shifting         CNVShift        .... on
   Level shift para.    LevelShift      ....    0.2500
   Turn off err/grad.   ShiftErr        ....    0.0000
 Zerner damping         CNVZerner       .... off
 Static damping         CNVDamp         .... on
   Fraction old density DampFac         ....    0.8500
   Max. Damping (<1)    DampMax         ....    0.9800
   Min. Damping (>=0)   DampMin         ....    0.0000
   Turn off err/grad.   DampErr         ....    0.0300
 Fernandez-Rico         CNVRico         .... off

SCF Procedure:
 Maximum # iterations   MaxIter         ....   125
 SCF integral mode      SCFMode         .... Direct
   Integral package                     .... LIBINT
 Reset frequency        DirectResetFreq ....    20
 Integral Threshold     Thresh          ....  2.500e-11 Eh
 Primitive CutOff       TCut            ....  2.500e-12 Eh

Convergence Tolerance:
 Convergence Check Mode ConvCheckMode   .... Total+1el-Energy
 Convergence forced     ConvForced      .... 0
 Energy Change          TolE            ....  1.000e-08 Eh
 1-El. energy change                    ....  1.000e-05 Eh
 Orbital Gradient       TolG            ....  1.000e-05
 Orbital Rotation angle TolX            ....  1.000e-05
 DIIS Error             TolErr          ....  5.000e-07


Diagonalization of the overlap matrix:
Smallest eigenvalue                        ... 6.674e-04
Time for diagonalization                   ...    0.024 sec
Threshold for overlap eigenvalues          ... 1.000e-08
Number of eigenvalues below threshold      ... 0
Time for construction of square roots      ...    0.050 sec
Total time needed                          ...    0.074 sec

-------------------
DFT GRID GENERATION
-------------------

General Integration Accuracy     IntAcc      ...  4.670
Radial Grid Type                 RadialGrid  ... Gauss-Chebyshev
Angular Grid (max. acc.)         AngularGrid ... Lebedev-302
Angular grid pruning method      GridPruning ... 3 (G Style)
Weight generation scheme         WeightScheme... Becke
Basis function cutoff            BFCut       ...    1.0000e-11
Integration weight cutoff        WCut        ...    1.0000e-14
Grids for H and He will be reduced by one unit

SpecialGrid => Setting IntAcc for atom type =  20 to   7.0000
# of grid points (after initial pruning)     ... 301106 (   0.0 sec)
# of grid points (after weights+screening)   ...  55540 (   0.1 sec)
nearest neighbour list constructed           ...    0.0 sec
Grid point re-assignment to atoms done       ...    0.1 sec
Grid point division into batches done        ...    0.3 sec
Reduced shell lists constructed in    0.4 sec

Total number of grid points                  ...    55540
Total number of batches                      ...      906
Average number of points per batch           ...       61
Average number of grid points per atom       ...      703
Average number of shells per batch           ...    60.38 (54.89%)
Average number of basis functions per batch  ...   188.58 (70.37%)
Average number of large shells per batch     ...    47.68 (78.96%)
Average number of large basis fcns per batch ...   147.47 (78.20%)
Maximum spatial batch extension              ...   2.33,  2.40,  2.38 au
Average spatial batch extension              ...   0.12,  0.12,  0.12 au

Time for grid setup =    0.540 sec

------------------------------
INITIAL GUESS: MODEL POTENTIAL
------------------------------
Loading ZORA relativistic densities                ... done
Calculating cut-offs                               ... done
Setting up the integral package                    ... done
Initializing the effective Hamiltonian             ... done
Starting the Coulomb interaction                   ... done (   0.0 sec)
Reading the grid                                   ... done
Mapping shells                                     ... done
Starting the XC term evaluation                    ... done (   0.1 sec)
  promolecular density results
     # of electrons  =    121.999982768
     EX              =   -201.570282721
     EC              =     -5.418111363
     EX+EC           =   -206.988394084
Transforming the Hamiltonian                       ... done (   0.0 sec)
Diagonalizing the Hamiltonian                      ... done (   0.0 sec)
Back transforming the eigenvectors                 ... done (   0.0 sec)
Now organizing SCF variables                       ... done
                      ------------------
                      INITIAL GUESS DONE (   0.9 sec)
                      ------------------
--------------
SCF ITERATIONS
--------------
               ***  Starting incremental Fock matrix formation  ***

                         ----------------------------
                         !        ITERATION     0   !
                         ----------------------------
   Total Energy        :   -3485.477333355488 Eh
   Energy Change       :   -3485.477333355488 Eh
   MAX-DP              :       0.043007508524
   RMS-DP              :       0.001019395702
   Actual Damping      :       0.8500
   Actual Level Shift  :       0.2500 Eh
   Int. Num. El.       :   125.99997485 (UP=   62.99998742 DN=   62.99998742)
   Exchange            :  -203.72310732
   Correlation         :    -5.61614476


                         ----------------------------
                         !        ITERATION     1   !
                         ----------------------------
   Total Energy        :   -3485.552732593710 Eh
   Energy Change       :      -0.075399238222 Eh
   MAX-DP              :       0.047682372728
   RMS-DP              :       0.001089446661
   Actual Damping      :       0.8500
   Actual Level Shift  :       0.2500 Eh
   Int. Num. El.       :   125.99997543 (UP=   62.99998772 DN=   62.99998772)
   Exchange            :  -203.40744947
   Correlation         :    -5.60749879

                               ***Turning on DIIS***

                         ----------------------------
                         !        ITERATION     2   !
                         ----------------------------
   Total Energy        :   -3485.604731548337 Eh
   Energy Change       :      -0.051998954627 Eh
   MAX-DP              :       0.037928487786
   RMS-DP              :       0.000880794766
   Actual Damping      :       0.8500
   Actual Level Shift  :       0.2500 Eh
   Int. Num. El.       :   125.99997605 (UP=   62.99998803 DN=   62.99998803)
   Exchange            :  -203.09831167
   Correlation         :    -5.59877188
   DIIS-Error          :       0.072842228810


                         ----------------------------
                         !        ITERATION     3   !
                         ----------------------------
   Total Energy        :   -3485.637651249789 Eh
   Energy Change       :      -0.032919701451 Eh
   MAX-DP              :       0.021420886356
   RMS-DP              :       0.000539866244
   Actual Damping      :       0.8500
   Actual Level Shift  :       0.2500 Eh
   Int. Num. El.       :   125.99997648 (UP=   62.99998824 DN=   62.99998824)
   Exchange            :  -202.86728732
   Correlation         :    -5.59223726
   DIIS-Error          :       0.048559903987
   DIIS coefficients:
     -1.22287   2.22287


                         ----------------------------
                         !        ITERATION     4   !
                         ----------------------------
   Total Energy        :   -3485.661241531763 Eh
   Energy Change       :      -0.023590281974 Eh
   MAX-DP              :       0.012903746845
   RMS-DP              :       0.000354118162
   Actual Damping      :       0.8500
   Actual Level Shift  :       0.2500 Eh
   Int. Num. El.       :   125.99997659 (UP=   62.99998829 DN=   62.99998829)
   Exchange            :  -202.75297972
   Correlation         :    -5.58870131
   DIIS-Error          :       0.035500256704
   DIIS coefficients:
     -0.54146  -0.58242   2.12388


                         ----------------------------
                         !        ITERATION     5   !
                         ----------------------------
   Total Energy        :   -3485.679187180177 Eh
   Energy Change       :      -0.017945648414 Eh
   MAX-DP              :       0.058133824719
   RMS-DP              :       0.001698693689
   Actual Damping      :       0.0000
   Actual Level Shift  :       0.2500 Eh
   Int. Num. El.       :   125.99997657 (UP=   62.99998829 DN=   62.99998829)
   Exchange            :  -202.68940009
   Correlation         :    -5.58660328
   DIIS-Error          :       0.027775673540
   DIIS coefficients:
     -0.26901  -0.44450  -0.38652   2.10003


                         ----------------------------
                         !        ITERATION     6   !
                         ----------------------------
   Total Energy        :   -3485.767591891105 Eh
   Energy Change       :      -0.088404710928 Eh
   MAX-DP              :       0.007627181988
   RMS-DP              :       0.000180550623
   Actual Damping      :       0.0000
   Actual Level Shift  :       0.2500 Eh
   Int. Num. El.       :   125.99997621 (UP=   62.99998810 DN=   62.99998810)
   Exchange            :  -202.42273727
   Correlation         :    -5.57758332
   DIIS-Error          :       0.006876190364
   DIIS coefficients:
     -0.00434   0.02620   0.05763   0.07797   0.84255


                         ----------------------------
                         !        ITERATION     7   !
                         ----------------------------
   Total Energy        :   -3485.768205782322 Eh
   Energy Change       :      -0.000613891216 Eh
   MAX-DP              :       0.002224100711
   RMS-DP              :       0.000055486938
   Actual Damping      :       0.0000
   Actual Level Shift  :       0.2500 Eh
   Int. Num. El.       :   125.99997610 (UP=   62.99998805 DN=   62.99998805)
   Exchange            :  -202.46974780
   Correlation         :    -5.57878640
   DIIS-Error          :       0.001498807221
   DIIS coefficients:
      0.70289   0.02439   0.02093   0.02426   0.22753

                      *** Initiating the SOSCF procedure ***
                           *** Shutting down DIIS ***
                      *** Re-Reading the Fockian *** 
                      *** Removing any level shift *** 

                         ----------------------------
                         !        ITERATION     8   !
                         ----------------------------
   Total Energy        :   -3485.768258856026 Eh
   Energy Change       :      -0.000053073705 Eh
   MAX-DP              :       0.000628431093
   RMS-DP              :       0.000016959763
   Orbital gradient    :       0.000286607678
   Orbital Rotation    :       0.000286607678
   Actual Damping      :       0.0000
   Int. Num. El.       :   125.99997608 (UP=   62.99998804 DN=   62.99998804)
   Exchange            :  -202.47737689
   Correlation         :    -5.57912995

               *** Restarting incremental Fock matrix formation ***

                         ----------------------------
                         !        ITERATION     9   !
                         ----------------------------
   Total Energy        :   -3485.768263367197 Eh
   Energy Change       :      -0.000004511171 Eh
   MAX-DP              :       0.000498345869
   RMS-DP              :       0.000012830799
   Orbital gradient    :       0.000136736002
   Orbital Rotation    :       0.000417982601
   Actual Damping      :       0.0000
   Int. Num. El.       :   125.99997608 (UP=   62.99998804 DN=   62.99998804)
   Exchange            :  -202.48012232
   Correlation         :    -5.57923144


                         ----------------------------
                         !        ITERATION    10   !
                         ----------------------------
   Total Energy        :   -3485.768263637491 Eh
   Energy Change       :      -0.000000270294 Eh
   MAX-DP              :       0.000236271034
   RMS-DP              :       0.000005112502
   Orbital gradient    :       0.000096888709
   Orbital Rotation    :       0.000084984748
   Actual Damping      :       0.0000
   Int. Num. El.       :   125.99997607 (UP=   62.99998803 DN=   62.99998803)
   Exchange            :  -202.48299007
   Correlation         :    -5.57931706


                         ----------------------------
                         !        ITERATION    11   !
                         ----------------------------
   Total Energy        :   -3485.768263953827 Eh
   Energy Change       :      -0.000000316336 Eh
   MAX-DP              :       0.000033967829
   RMS-DP              :       0.000001442812
   Orbital gradient    :       0.000018699498
   Orbital Rotation    :       0.000059985209
   Actual Damping      :       0.0000
   Int. Num. El.       :   125.99997607 (UP=   62.99998804 DN=   62.99998804)
   Exchange            :  -202.48136212
   Correlation         :    -5.57928271


                         ----------------------------
                         !        ITERATION    12   !
                         ----------------------------
   Total Energy        :   -3485.768263947499 Eh
   Energy Change       :       0.000000006329 Eh
   MAX-DP              :       0.000025804798
   RMS-DP              :       0.000000605775
   Orbital gradient    :       0.000016121969
   Orbital Rotation    :       0.000017293503
   Actual Damping      :       0.0000
   Int. Num. El.       :   125.99997607 (UP=   62.99998804 DN=   62.99998804)
   Exchange            :  -202.48125308
   Correlation         :    -5.57927809


                         ----------------------------
                         !        ITERATION    13   !
                         ----------------------------
   Total Energy        :   -3485.768263953597 Eh
   Energy Change       :      -0.000000006099 Eh
   MAX-DP              :       0.000017390770
   RMS-DP              :       0.000000391486
   Orbital gradient    :       0.000005332082
   Orbital Rotation    :       0.000015193347
   Actual Damping      :       0.0000
   Int. Num. El.       :   125.99997607 (UP=   62.99998804 DN=   62.99998804)
   Exchange            :  -202.48148753
   Correlation         :    -5.57928101


                         ----------------------------
                         !        ITERATION    14   !
                         ----------------------------
   Total Energy        :   -3485.768263977882 Eh
   Energy Change       :      -0.000000024285 Eh
   MAX-DP              :       0.000012341193
   RMS-DP              :       0.000000153112
   Orbital gradient    :       0.000003903483
   Orbital Rotation    :       0.000006056025
   Actual Damping      :       0.0000
   Int. Num. El.       :   125.99997607 (UP=   62.99998804 DN=   62.99998804)
   Exchange            :  -202.48142172
   Correlation         :    -5.57928171

                  ***Gradient check signals convergence***
              ***Rediagonalizing the Fockian in SOSCF/NRSCF***

               *****************************************************
               *                     SUCCESS                       *
               *           SCF CONVERGED AFTER  15 CYCLES          *
               *****************************************************


----------------
TOTAL SCF ENERGY
----------------

Total Energy       :        -3485.76826397 Eh          -94852.57667 eV

Components:
Nuclear Repulsion  :         1006.01014498 Eh           27374.92776 eV
Electronic Energy  :        -4491.77840896 Eh         -122227.50443 eV
One Electron Energy:        -6824.33689190 Eh         -185699.64762 eV
Two Electron Energy:         2332.55848295 Eh           63472.14318 eV

Virial components:
Potential Energy   :        -6956.94620464 Eh         -189308.13047 eV
Kinetic Energy     :         3471.17794066 Eh           94455.55379 eV
Virial Ratio       :            2.00420328


DFT components:
N(Alpha)           :       62.999988035772 electrons
N(Beta)            :       62.999988035772 electrons
N(Total)           :      125.999976071544 electrons
E(X)               :     -202.481421858669 Eh       
E(C)               :       -5.579281184889 Eh       
E(XC)              :     -208.060703043558 Eh       
DFET-embed. en.    :        0.000000000000 Eh       

---------------
SCF CONVERGENCE
---------------

  Last Energy change         ...    4.8408e-09  Tolerance :   1.0000e-08
  Last MAX-Density change    ...    2.4025e-06  Tolerance :   1.0000e-07
  Last RMS-Density change    ...    3.0507e-08  Tolerance :   5.0000e-09
  Last Orbital Gradient      ...    8.1356e-07  Tolerance :   1.0000e-05
  Last Orbital Rotation      ...    8.0367e-07  Tolerance :   1.0000e-05

             **** THE GBW FILE WAS UPDATED (cl2_pc1_dbz.gbw) ****
             **** DENSITY FILE WAS UPDATED (cl2_pc1_dbz.scfp.tmp) ****
             **** ENERGY FILE WAS UPDATED (cl2_pc1_dbz.en.tmp) ****
----------------
ORBITAL ENERGIES
----------------

  NO   OCC          E(Eh)            E(eV) 
   0   2.0000    -145.941712     -3971.2759 
   1   2.0000    -101.532710     -2762.8455 
   2   2.0000    -101.532710     -2762.8455 
   3   2.0000    -101.532708     -2762.8454 
   4   2.0000    -101.532707     -2762.8454 
   5   2.0000    -101.530626     -2762.7888 
   6   2.0000    -101.530624     -2762.7887 
   7   2.0000     -15.250364      -414.9835 
   8   2.0000     -12.321706      -335.2907 
   9   2.0000     -12.321618      -335.2883 
  10   2.0000     -12.321547      -335.2863 
  11   2.0000      -9.290811      -252.8158 
  12   2.0000      -9.290810      -252.8158 
  13   2.0000      -9.290808      -252.8157 
  14   2.0000      -9.290807      -252.8157 
  15   2.0000      -9.289019      -252.7671 
  16   2.0000      -9.289017      -252.7670 
  17   2.0000      -7.047232      -191.7649 
  18   2.0000      -7.047232      -191.7649 
  19   2.0000      -7.047231      -191.7649 
  20   2.0000      -7.047231      -191.7649 
  21   2.0000      -7.045935      -191.7296 
  22   2.0000      -7.045934      -191.7296 
  23   2.0000      -7.045934      -191.7296 
  24   2.0000      -7.045933      -191.7296 
  25   2.0000      -7.045013      -191.7045 
  26   2.0000      -7.045013      -191.7045 
  27   2.0000      -7.044507      -191.6908 
  28   2.0000      -7.044507      -191.6908 
  29   2.0000      -7.044173      -191.6817 
  30   2.0000      -7.044173      -191.6817 
  31   2.0000      -7.044173      -191.6817 
  32   2.0000      -7.044173      -191.6817 
  33   2.0000      -7.042368      -191.6326 
  34   2.0000      -7.042367      -191.6326 
  35   2.0000      -1.732752       -47.1506 
  36   2.0000      -1.035829       -28.1863 
  37   2.0000      -1.035447       -28.1759 
  38   2.0000      -1.034965       -28.1628 
  39   2.0000      -0.787740       -21.4355 
  40   2.0000      -0.783300       -21.3147 
  41   2.0000      -0.781177       -21.2569 
  42   2.0000      -0.781101       -21.2548 
  43   2.0000      -0.780056       -21.2264 
  44   2.0000      -0.779653       -21.2154 
  45   2.0000      -0.400158       -10.8889 
  46   2.0000      -0.393419       -10.7055 
  47   2.0000      -0.383687       -10.4406 
  48   2.0000      -0.369970       -10.0674 
  49   2.0000      -0.369805       -10.0629 
  50   2.0000      -0.365758        -9.9528 
  51   2.0000      -0.364174        -9.9097 
  52   2.0000      -0.363814        -9.8999 
  53   2.0000      -0.363747        -9.8981 
  54   2.0000      -0.358703        -9.7608 
  55   2.0000      -0.355442        -9.6721 
  56   2.0000      -0.350930        -9.5493 
  57   2.0000      -0.345296        -9.3960 
  58   2.0000      -0.334499        -9.1022 
  59   2.0000      -0.331839        -9.0298 
  60   2.0000      -0.330645        -8.9973 
  61   2.0000      -0.330159        -8.9841 
  62   2.0000      -0.321904        -8.7594 
  63   0.0000      -0.070346        -1.9142 
  64   0.0000      -0.067781        -1.8444 
  65   0.0000      -0.066270        -1.8033 
  66   0.0000      -0.060782        -1.6540 
  67   0.0000      -0.033569        -0.9135 
  68   0.0000      -0.029012        -0.7894 
  69   0.0000      -0.022036        -0.5996 
  70   0.0000      -0.018400        -0.5007 
  71   0.0000      -0.003719        -0.1012 
  72   0.0000       0.032407         0.8818 
  73   0.0000       0.052374         1.4252 
  74   0.0000       0.069770         1.8985 
  75   0.0000       0.070633         1.9220 
  76   0.0000       0.085434         2.3248 
  77   0.0000       0.102052         2.7770 
  78   0.0000       0.129142         3.5141 
  79   0.0000       0.137152         3.7321 
  80   0.0000       0.149752         4.0750 
  81   0.0000       0.154870         4.2142 
  82   0.0000       0.161556         4.3962 
  83   0.0000       0.182076         4.9545 
  84   0.0000       0.184455         5.0193 
  85   0.0000       0.192863         5.2481 
  86   0.0000       0.193183         5.2568 
  87   0.0000       0.198336         5.3970 
  88   0.0000       0.203208         5.5296 
  89   0.0000       0.223901         6.0927 
  90   0.0000       0.228149         6.2083 
  91   0.0000       0.252889         6.8815 
  92   0.0000       0.254874         6.9355 
  93   0.0000       0.257433         7.0051 
  94   0.0000       0.261096         7.1048 
  95   0.0000       0.265989         7.2379 
  96   0.0000       0.267793         7.2870 
  97   0.0000       0.270069         7.3490 
  98   0.0000       0.281039         7.6475 
  99   0.0000       0.283301         7.7090 
 100   0.0000       0.304995         8.2993 
 101   0.0000       0.306638         8.3440 
 102   0.0000       0.310228         8.4417 
 103   0.0000       0.310914         8.4604 
 104   0.0000       0.313777         8.5383 
 105   0.0000       0.315060         8.5732 
 106   0.0000       0.319049         8.6818 
 107   0.0000       0.319154         8.6846 
 108   0.0000       0.321177         8.7397 
 109   0.0000       0.339034         9.2256 
 110   0.0000       0.341088         9.2815 
 111   0.0000       0.341868         9.3027 
 112   0.0000       0.366230         9.9656 
 113   0.0000       0.373834        10.1725 
 114   0.0000       0.385092        10.4789 
 115   0.0000       0.406628        11.0649 
 116   0.0000       0.411473        11.1968 
 117   0.0000       0.418321        11.3831 
 118   0.0000       0.419588        11.4176 
 119   0.0000       0.428099        11.6492 
 120   0.0000       0.463508        12.6127 
 121   0.0000       0.477602        12.9962 
 122   0.0000       0.480383        13.0719 
 123   0.0000       0.489646        13.3240 
 124   0.0000       0.497294        13.5321 
 125   0.0000       0.506239        13.7755 
 126   0.0000       0.579203        15.7609 
 127   0.0000       0.581705        15.8290 
 128   0.0000       0.638276        17.3684 
 129   0.0000       0.780362        21.2347 
 130   0.0000       0.809944        22.0397 
 131   0.0000       0.810660        22.0592 
 132   0.0000       0.818817        22.2811 
 133   0.0000       0.827236        22.5102 
 134   0.0000       0.834020        22.6948 
 135   0.0000       0.834132        22.6979 
 136   0.0000       0.835201        22.7270 
 137   0.0000       0.855828        23.2883 
 138   0.0000       1.223238        33.2860 
 139   0.0000       1.226989        33.3881 
 140   0.0000       1.234275        33.5863 
 141   0.0000       1.268469        34.5168 
 142   0.0000       1.277486        34.7622 
 143   0.0000       1.358383        36.9635 
 144   0.0000       1.528819        41.6013 
 145   0.0000       1.566234        42.6194 
 146   0.0000       1.566947        42.6388 
 147   0.0000       1.569408        42.7058 
 148   0.0000       1.585989        43.1570 
 149   0.0000       1.586280        43.1649 
 150   0.0000       1.588175        43.2164 
 151   0.0000       1.590534        43.2806 
 152   0.0000       1.594579        43.3907 
 153   0.0000       1.594798        43.3967 
 154   0.0000       1.599240        43.5175 
 155   0.0000       1.616744        43.9938 
 156   0.0000       1.617514        44.0148 
 157   0.0000       1.618600        44.0444 
 158   0.0000       1.623500        44.1777 
 159   0.0000       1.626564        44.2611 
 160   0.0000       1.649023        44.8722 
 161   0.0000       1.680692        45.7340 
 162   0.0000       1.684967        45.8503 
 163   0.0000       1.687256        45.9126 
 164   0.0000       1.699471        46.2450 
 165   0.0000       1.748416        47.5768 
 166   0.0000       1.764827        48.0234 
 167   0.0000       1.767186        48.0876 
 168   0.0000       1.772207        48.2242 
 169   0.0000       1.772447        48.2307 
 170   0.0000       1.773727        48.2656 
 171   0.0000       1.778029        48.3826 
 172   0.0000       1.825588        49.6768 
 173   0.0000       1.834003        49.9058 
 174   0.0000       1.923530        52.3419 
 175   0.0000       1.923814        52.3497 
 176   0.0000       1.927959        52.4624 
 177   0.0000       1.931958        52.5712 
 178   0.0000       1.931983        52.5719 
 179   0.0000       1.933171        52.6043 
 180   0.0000       1.933266        52.6068 
 181   0.0000       1.936208        52.6869 
 182   0.0000       1.938186        52.7407 
 183   0.0000       1.938363        52.7456 
 184   0.0000       1.938662        52.7537 
 185   0.0000       1.939765        52.7837 
 186   0.0000       1.940105        52.7929 
 187   0.0000       1.940575        52.8057 
 188   0.0000       1.942582        52.8603 
 189   0.0000       1.942845        52.8675 
 190   0.0000       1.944638        52.9163 
 191   0.0000       1.946682        52.9719 
 192   0.0000       1.947117        52.9838 
 193   0.0000       1.947143        52.9845 
 194   0.0000       1.949774        53.0561 
 195   0.0000       1.950533        53.0767 
 196   0.0000       1.950548        53.0771 
 197   0.0000       1.951137        53.0931 
 198   0.0000       1.951234        53.0958 
 199   0.0000       1.952232        53.1229 
 200   0.0000       1.955350        53.2078 
 201   0.0000       1.955410        53.2094 
 202   0.0000       1.957789        53.2742 
 203   0.0000       1.960322        53.3431 
 204   0.0000       1.973709        53.7073 
 205   0.0000       1.977700        53.8160 
 206   0.0000       1.990752        54.1711 
 207   0.0000       1.991921        54.2029 
 208   0.0000       1.993875        54.2561 
 209   0.0000       2.003729        54.5242 
 210   0.0000       2.005995        54.5859 
 211   0.0000       2.017121        54.8886 
 212   0.0000       2.025429        55.1147 
 213   0.0000       2.030112        55.2421 
 214   0.0000       2.121659        57.7333 
 215   0.0000       2.125955        57.8502 
 216   0.0000       2.129647        57.9507 
 217   0.0000       2.135554        58.1114 
 218   0.0000       2.138491        58.1913 
 219   0.0000       2.151300        58.5399 
 220   0.0000       2.159843        58.7723 
 221   0.0000       2.160539        58.7912 
 222   0.0000       2.161378        58.8141 
 223   0.0000       2.164102        58.8882 
 224   0.0000       2.177390        59.2498 
 225   0.0000       2.177878        59.2631 
 226   0.0000       2.201282        59.8999 
 227   0.0000       2.211095        60.1669 
 228   0.0000       2.214510        60.2599 
 229   0.0000       2.244614        61.0791 
 230   0.0000       2.261697        61.5439 
 231   0.0000       2.275767        61.9268 
 232   0.0000       2.281246        62.0759 
 233   0.0000       2.284780        62.1720 
 234   0.0000       4.032164       109.7208 
 235   0.0000       4.087946       111.2387 
 236   0.0000       4.097746       111.5053 
 237   0.0000       4.957351       134.8964 
 238   0.0000       5.001299       136.0923 
 239   0.0000       5.004649       136.1834 
 240   0.0000       5.085217       138.3758 
 241   0.0000       5.103322       138.8685 
 242   0.0000       5.118647       139.2855 
 243   0.0000       8.303269       225.9434 
 244   0.0000      21.610262       588.0451 
 245   0.0000      21.650180       589.1313 
 246   0.0000      21.653924       589.2332 
 247   0.0000      21.727354       591.2314 
 248   0.0000      21.745386       591.7220 
 249   0.0000      21.755321       591.9924 
 250   0.0000      30.571199       831.8846 
 251   0.0000      74.042050      2014.7866 
 252   0.0000      74.116502      2016.8126 
 253   0.0000      74.127364      2017.1081 
 254   0.0000     136.904476      3725.3602 
 255   0.0000     136.939230      3726.3059 
 256   0.0000     136.943849      3726.4316 
 257   0.0000     137.003684      3728.0598 
 258   0.0000     137.016666      3728.4130 
 259   0.0000     137.026466      3728.6797 
 260   0.0000     200.864342      5465.7966 
 261   0.0000     911.482840     24802.7090 
 262   0.0000     911.536104     24804.1584 
 263   0.0000     911.544253     24804.3802 
 264   0.0000     911.635975     24806.8760 
 265   0.0000     911.655617     24807.4105 
 266   0.0000     911.670328     24807.8108 
 267   0.0000    1351.118065     36765.7917 

                    ********************************
                    * MULLIKEN POPULATION ANALYSIS *
                    ********************************

-----------------------
MULLIKEN ATOMIC CHARGES
-----------------------
   0 Ca:    1.596255
   1 Cl:   -0.920067
   2 Cl:   -0.920066
   3 Cl:   -0.957994
   4 Cl:   -0.920067
   5 Cl:   -0.920066
   6 Cl:   -0.957994
   7 Q :    1.825740
   8 Q :    1.825740
   9 Q :    1.825740
  10 Q :    1.825740
  11 Q :    1.825740
  12 Q :    1.825740
  13 Q :    1.825740
  14 Q :    1.825740
  15 Q :    1.825740
  16 Q :    1.825740
  17 Q :    1.825740
  18 Q :    1.825740
  19 Q :    1.825740
  20 Q :    1.825740
  21 Q :    1.825740
  22 Q :    1.825740
  23 Q :    1.825740
  24 Q :    1.825740
  25 Q :    1.825740
  26 Q :    1.825740
  27 Q :    1.825740
  28 Q :    1.825740
  29 Q :    1.825740
  30 Q :    1.825740
  31 Q :    1.825740
  32 Q :    1.825740
  33 Q :    1.825740
  34 Q :    1.825740
[...]
  195    0a ->  257a      7699.336     0.000000000000    -0.00000  -0.00000   0.00000
  196    0a ->  258a      7699.689     0.000000000000    -0.00000  -0.00000   0.00000
  197    0a ->  259a      7699.956     0.000000000000     0.00000  -0.00000  -0.00000
  198    0a ->  260a      9437.072     0.000000000000    -0.00000  -0.00000   0.00000
  199    0a ->  261a     28773.985     0.000000008807    -0.00000  -0.00000  -0.00000
  200    0a ->  262a     28775.434     0.000000206082     0.00000  -0.00000  -0.00000
  201    0a ->  263a     28775.656     0.000000577913     0.00000  -0.00000   0.00001
  202    0a ->  264a     28778.152     0.000000000000    -0.00000  -0.00000   0.00000
  203    0a ->  265a     28778.686     0.000000000000     0.00000   0.00000  -0.00000
  204    0a ->  266a     28779.087     0.000000000000    -0.00000   0.00000   0.00000
  205    0a ->  267a     40737.068     0.000000000000     0.00000  -0.00000  -0.00000



-------------------------------------------------------------------------------------
          X-RAY ABSORPTION SPECTRUM VIA TRANSITION VELOCITY DIPOLE MOMENTS
-------------------------------------------------------------------------------------
       Transition          Energy           INT             PX        PY        PZ 
                            (eV)        (normalized)       (au)      (au)      (au)
-------------------------------------------------------------------------------------
    1    0a ->   63a      3969.362     0.000000000000    -0.00000  -0.00000   0.00000
    2    0a ->   64a      3969.431     0.000000000000    -0.00000   0.00000   0.00000
    3    0a ->   65a      3969.473     0.000000000000     0.00000   0.00000   0.00000
    4    0a ->   66a      3969.622     0.000000000000    -0.00000   0.00000   0.00000
    5    0a ->   67a      3970.362     0.000000000000    -0.00000  -0.00000  -0.00000
    6    0a ->   68a      3970.486     0.000000000000    -0.00000   0.00000   0.00000
    7    0a ->   69a      3970.676     0.001070476703     0.00000   0.00000  -0.21763
    8    0a ->   70a      3970.775     0.001214521526    -0.16834   0.15937  -0.00000
    9    0a ->   71a      3971.175     0.001749592892    -0.18939  -0.20384  -0.00000
   10    0a ->   72a      3972.158     0.000000000000    -0.00000  -0.00000  -0.00000
   11    0a ->   73a      3972.701     0.000000000000     0.00000   0.00000   0.00000
   12    0a ->   74a      3973.174     0.000000000002    -0.00000   0.00000   0.00001
   13    0a ->   75a      3973.198     0.004131967381    -0.00000  -0.00000   0.42770
   14    0a ->   76a      3973.601     0.004686386428    -0.31551  -0.32856  -0.00000
   15    0a ->   77a      3974.053     0.005169669124    -0.35435   0.32149  -0.00000
   16    0a ->   78a      3974.790     0.000000000000     0.00000   0.00000   0.00000
   17    0a ->   79a      3975.008     0.000000000000     0.00000  -0.00000   0.00000
   18    0a ->   80a      3975.351     0.000000000000    -0.00000  -0.00000  -0.00000
   19    0a ->   81a      3975.490     0.000000000000     0.00000   0.00000  -0.00000
   20    0a ->   82a      3975.672     0.000480841971     0.00000   0.00000  -0.14595
   21    0a ->   83a      3976.230     0.000035071236    -0.00405  -0.03921   0.00000
   22    0a ->   84a      3976.295     0.000000000000     0.00000   0.00000  -0.00000
   23    0a ->   85a      3976.524     0.000843171176     0.00000   0.00000   0.19329
   24    0a ->   86a      3976.533     0.000000000000    -0.00000   0.00000  -0.00000
   25    0a ->   87a      3976.673     0.000000000000    -0.00000   0.00000   0.00000
   26    0a ->   88a      3976.805     0.000019347002    -0.02505   0.01516   0.00000
   27    0a ->   89a      3977.369     0.000492959767    -0.09767  -0.11094   0.00000
   28    0a ->   90a      3977.484     0.000000000000    -0.00000  -0.00000   0.00000
   29    0a ->   91a      3978.157     0.000654675872    -0.00000   0.00000  -0.17035
   30    0a ->   92a      3978.211     0.000000000000     0.00000   0.00000   0.00000
   31    0a ->   93a      3978.281     0.000000000000    -0.00000   0.00000   0.00000
   32    0a ->   94a      3978.381     0.001580370549     0.00000   0.00000  -0.26468
   33    0a ->   95a      3978.514     0.001826565724    -0.17386  -0.22527  -0.00000
   34    0a ->   96a      3978.563     0.000016312009    -0.00000  -0.00000   0.02689
   35    0a ->   97a      3978.625     0.000000000000     0.00000  -0.00000   0.00000
   36    0a ->   98a      3978.923     0.002654328800     0.25634  -0.22797  -0.00000
   37    0a ->   99a      3978.985     0.000000000004     0.00001  -0.00001  -0.00000
   38    0a ->  100a      3979.575     0.000093051823    -0.06001   0.02293  -0.00000
   39    0a ->  101a      3979.620     0.000000000000     0.00000   0.00000   0.00000
   40    0a ->  102a      3979.718     0.000000026116     0.00000   0.00000  -0.00108
   41    0a ->  103a      3979.736     0.000326962887     0.07172   0.09673   0.00000
   42    0a ->  104a      3979.814     0.000000000000     0.00000   0.00000  -0.00000
   43    0a ->  105a      3979.849     0.000000000000     0.00000  -0.00000  -0.00000
   44    0a ->  106a      3979.958     0.000000000033    -0.00002   0.00003   0.00000
   45    0a ->  107a      3979.961     0.000084728655    -0.03874   0.04750   0.00000
   46    0a ->  108a      3980.016     0.000018080161    -0.00000  -0.00000  -0.02832
   47    0a ->  109a      3980.501     0.000511430578     0.00000  -0.00000  -0.15061
   48    0a ->  110a      3980.557     0.000000000000    -0.00000  -0.00000  -0.00000
   49    0a ->  111a      3980.579     0.000000000000    -0.00000  -0.00000  -0.00000
   50    0a ->  112a      3981.242     0.000023686987     0.01588   0.02826   0.00000
   51    0a ->  113a      3981.448     0.000005158679    -0.00000  -0.00000   0.01513
   52    0a ->  114a      3981.755     0.000000000000    -0.00000  -0.00000   0.00000
   53    0a ->  115a      3982.341     0.000000000000     0.00000  -0.00000  -0.00000
   54    0a ->  116a      3982.473     0.000035453331    -0.03599  -0.01668   0.00000
   55    0a ->  117a      3982.659     0.000057005347    -0.02431   0.04403  -0.00000
   56    0a ->  118a      3982.693     0.001141152121     0.00000  -0.00000  -0.22504
   57    0a ->  119a      3982.925     0.000000000000     0.00000  -0.00000   0.00000
   58    0a ->  120a      3983.889     0.002121985722     0.00000  -0.00000   0.30692
   59    0a ->  121a      3984.272     0.003825579917    -0.27477   0.30715   0.00000
   60    0a ->  122a      3984.348     0.000000000000     0.00000   0.00000   0.00000
   61    0a ->  123a      3984.600     0.003246183871    -0.28355  -0.25244  -0.00000
   62    0a ->  124a      3984.808     0.000000000000    -0.00000  -0.00000   0.00000
   63    0a ->  125a      3985.051     0.000000000000     0.00000  -0.00000  -0.00000
   64    0a ->  126a      3987.037     0.000000000000     0.00000  -0.00000  -0.00000
   65    0a ->  127a      3987.105     0.000000000000     0.00000   0.00000   0.00000
   66    0a ->  128a      3988.644     0.000000000000    -0.00000   0.00000   0.00000
   67    0a ->  129a      3992.511     0.004433966075     0.32612   0.30150   0.00000
   68    0a ->  130a      3993.316     0.018965778581    -0.00000  -0.00000   0.91864
   69    0a ->  131a      3993.335     0.019758940404     0.70450   0.61878   0.00000
   70    0a ->  132a      3993.557     0.000000000002    -0.00001  -0.00001  -0.00000
   71    0a ->  133a      3993.786     0.013213281207     0.54130  -0.54315  -0.00000
   72    0a ->  134a      3993.971     0.000000000002    -0.00000   0.00001  -0.00000
   73    0a ->  135a      3993.974     0.000000000007     0.00001  -0.00001   0.00000
   74    0a ->  136a      3994.003     0.010337701221     0.41038  -0.54005   0.00000
   75    0a ->  137a      3994.564     0.004725121097    -0.00000   0.00000  -0.45860
   76    0a ->  138a      4004.562     0.000000000000    -0.00000   0.00000  -0.00000
   77    0a ->  139a      4004.664     0.000000000000    -0.00000  -0.00000   0.00000
   78    0a ->  140a      4004.862     0.000000000000     0.00000  -0.00000   0.00000
   79    0a ->  141a      4005.793     0.000000000000    -0.00000  -0.00000  -0.00000
   80    0a ->  142a      4006.038     0.000000000000     0.00000   0.00000  -0.00000
   81    0a ->  143a      4008.239     0.000000000000     0.00000   0.00000   0.00000
   82    0a ->  144a      4012.877     0.000001736312    -0.00000   0.00000  -0.00881
   83    0a ->  145a      4013.895     0.000000170943     0.00000   0.00000  -0.00277
   84    0a ->  146a      4013.915     0.000005306492     0.00567   0.01433   0.00000
   85    0a ->  147a      4013.982     0.000013682442    -0.02135  -0.01249   0.00000
   86    0a ->  148a      4014.433     0.000000000000     0.00000  -0.00000  -0.00000
   87    0a ->  149a      4014.441     0.000000000000     0.00000  -0.00000   0.00000
   88    0a ->  150a      4014.492     0.000004482862     0.00772  -0.01187   0.00000
   89    0a ->  151a      4014.557     0.000000612071     0.00000   0.00000   0.00523
   90    0a ->  152a      4014.667     0.000000000004     0.00000   0.00000  -0.00001
   91    0a ->  153a      4014.673     0.000012972859     0.00000  -0.00000  -0.02409
   92    0a ->  154a      4014.793     0.000000000000     0.00000   0.00000   0.00000
   93    0a ->  155a      4015.270     0.000000000000    -0.00000  -0.00000  -0.00000
   94    0a ->  156a      4015.291     0.000000601097     0.00000   0.00000  -0.00519
   95    0a ->  157a      4015.320     0.000053667147    -0.03924  -0.02935   0.00000
   96    0a ->  158a      4015.454     0.000000000000     0.00000   0.00000  -0.00000
   97    0a ->  159a      4015.537     0.000000000000     0.00000  -0.00000  -0.00000
   98    0a ->  160a      4016.148     0.000000000000     0.00000   0.00000   0.00000
   99    0a ->  161a      4017.010     0.000000000000    -0.00000  -0.00000  -0.00000
  100    0a ->  162a      4017.126     0.001709944123     0.00000   0.00000  -0.27666
  101    0a ->  163a      4017.188     0.001671952157    -0.20267  -0.18375  -0.00000
  102    0a ->  164a      4017.521     0.001312405230    -0.16676   0.17590  -0.00000
  103    0a ->  165a      4018.853     0.000000000000     0.00000   0.00000  -0.00000
  104    0a ->  166a      4019.299     0.000208998494    -0.05393  -0.08032   0.00000
  105    0a ->  167a      4019.363     0.000304180201     0.00000   0.00000   0.11672
  106    0a ->  168a      4019.500     0.000240461461    -0.08253   0.06291  -0.00000
  107    0a ->  169a      4019.507     0.000000000017    -0.00002   0.00002  -0.00000
  108    0a ->  170a      4019.541     0.000000000000    -0.00000   0.00000  -0.00000
  109    0a ->  171a      4019.659     0.000000000000    -0.00000   0.00000   0.00000
  110    0a ->  172a      4020.953     0.000000000000     0.00000   0.00000   0.00000
  111    0a ->  173a      4021.182     0.000000000000    -0.00000   0.00000   0.00000
  112    0a ->  174a      4023.618     0.000000000000     0.00000   0.00000  -0.00000
  113    0a ->  175a      4023.626     0.000001718876     0.00000   0.00000   0.00878
  114    0a ->  176a      4023.738     0.000081143202     0.04732   0.03740  -0.00000
  115    0a ->  177a      4023.847     0.000000000342     0.00000   0.00000   0.00012
  116    0a ->  178a      4023.848     0.000053499684     0.00000   0.00000  -0.04898
  117    0a ->  179a      4023.880     0.000000000000     0.00000   0.00000  -0.00000
  118    0a ->  180a      4023.883     0.000036756357    -0.02904  -0.02837  -0.00000
  119    0a ->  181a      4023.963     0.000000003891     0.00000   0.00000   0.00042
  120    0a ->  182a      4024.017     0.000007316356    -0.01624   0.00802  -0.00000
  121    0a ->  183a      4024.021     0.000000000001     0.00001  -0.00000   0.00000
  122    0a ->  184a      4024.030     0.000047179923    -0.01978   0.04152  -0.00000
  123    0a ->  185a      4024.060     0.000001624892     0.00000  -0.00000  -0.00854
  124    0a ->  186a      4024.069     0.000001769607     0.00000  -0.00000   0.00891
  125    0a ->  187a      4024.082     0.000000000000     0.00000  -0.00000  -0.00000
  126    0a ->  188a      4024.136     0.000000000000    -0.00000  -0.00000  -0.00000
  127    0a ->  189a      4024.143     0.000000000000    -0.00000  -0.00000  -0.00000
  128    0a ->  190a      4024.192     0.000004487264     0.00127  -0.01413   0.00000
  129    0a ->  191a      4024.248     0.000000000000     0.00000   0.00000   0.00000
  130    0a ->  192a      4024.260     0.000044938122    -0.03655  -0.02606   0.00000
  131    0a ->  193a      4024.260     0.000006933813     0.00000   0.00000   0.01763
  132    0a ->  194a      4024.332     0.000000000000    -0.00000  -0.00000   0.00000
  133    0a ->  195a      4024.353     0.000001233680    -0.00000  -0.00000  -0.00744
  134    0a ->  196a      4024.353     0.000000000000    -0.00000  -0.00000   0.00000
  135    0a ->  197a      4024.369     0.000000000000     0.00000   0.00000  -0.00000
  136    0a ->  198a      4024.372     0.000002049381    -0.00000  -0.00000  -0.00959
  137    0a ->  199a      4024.399     0.000000365520     0.00236  -0.00329  -0.00000
  138    0a ->  200a      4024.484     0.000000000000     0.00000   0.00000   0.00000
  139    0a ->  201a      4024.485     0.000000000000    -0.00000  -0.00000  -0.00000
  140    0a ->  202a      4024.550     0.000000000000     0.00000   0.00000   0.00000
  141    0a ->  203a      4024.619     0.000000000000    -0.00000   0.00000   0.00000
  142    0a ->  204a      4024.983     0.000007094946     0.01767  -0.00244   0.00000
  143    0a ->  205a      4025.092     0.000000000000     0.00000   0.00000   0.00000
  144    0a ->  206a      4025.447     0.005370775739    -0.37251  -0.31959  -0.00000
  145    0a ->  207a      4025.479     0.000009161604    -0.00000  -0.00000   0.02027
  146    0a ->  208a      4025.532     0.000176729686    -0.02818   0.08446   0.00000
  147    0a ->  209a      4025.800     0.000000000000     0.00000   0.00000  -0.00000
  148    0a ->  210a      4025.862     0.000000000000    -0.00000  -0.00000   0.00000
  149    0a ->  211a      4026.165     0.008767391029    -0.00000   0.00000  -0.62716
  150    0a ->  212a      4026.391     0.007866484158     0.39351  -0.44506   0.00000
  151    0a ->  213a      4026.518     0.000000000000    -0.00000   0.00000   0.00000
  152    0a ->  214a      4029.009     0.000380521441    -0.07745  -0.10529  -0.00000
  153    0a ->  215a      4029.126     0.000497829376    -0.11457   0.09604   0.00000
  154    0a ->  216a      4029.227     0.000230743248    -0.00000   0.00000  -0.10178
  155    0a ->  217a      4029.387     0.000000000000     0.00000   0.00000  -0.00000
  156    0a ->  218a      4029.467     0.000007502183     0.00000  -0.00000  -0.01835
  157    0a ->  219a      4029.816     0.000011656753    -0.01778  -0.01440   0.00000
  158    0a ->  220a      4030.048     0.000000000000    -0.00000  -0.00000   0.00000
  159    0a ->  221a      4030.067     0.000000000000     0.00000   0.00000  -0.00000
  160    0a ->  222a      4030.090     0.000000440153    -0.00000  -0.00000   0.00445
  161    0a ->  223a      4030.164     0.000000000000    -0.00000   0.00000  -0.00000
  162    0a ->  224a      4030.526     0.000000000000    -0.00000  -0.00000  -0.00000
  163    0a ->  225a      4030.539     0.000000000000    -0.00000  -0.00000   0.00000
  164    0a ->  226a      4031.176     0.000000000000     0.00000  -0.00000   0.00000
  165    0a ->  227a      4031.443     0.000000000000     0.00000   0.00000  -0.00000
  166    0a ->  228a      4031.536     0.000000000000     0.00000  -0.00000  -0.00000
  167    0a ->  229a      4032.355     0.000000000000     0.00000   0.00000  -0.00000
  168    0a ->  230a      4032.820     0.000075483446     0.03324   0.04782  -0.00000
  169    0a ->  231a      4033.203     0.000106944904     0.05232  -0.04548  -0.00000
  170    0a ->  232a      4033.352     0.000130885210     0.00000   0.00000   0.07670
  171    0a ->  233a      4033.448     0.000000000000    -0.00000  -0.00000   0.00000
  172    0a ->  234a      4080.997     0.192526651474    -2.20767  -1.97003   0.00000
  173    0a ->  235a      4082.515     0.190740603861     1.96111  -2.19792  -0.00000
  174    0a ->  236a      4082.781     0.190221903922     0.00000  -0.00000   2.94173
  175    0a ->  237a      4106.172     0.000006529441    -0.01208  -0.01236  -0.00000
  176    0a ->  238a      4107.368     0.000054635316     0.03323  -0.03737  -0.00000
  177    0a ->  239a      4107.459     0.000077721407     0.00000  -0.00000   0.05964
  178    0a ->  240a      4109.652     0.000000000000    -0.00000  -0.00000   0.00000
  179    0a ->  241a      4110.144     0.000000000000     0.00000   0.00000  -0.00000
  180    0a ->  242a      4110.561     0.000000000000     0.00000  -0.00000   0.00000
  181    0a ->  243a      4197.219     0.000000000000     0.00000  -0.00000  -0.00000
  182    0a ->  244a      4559.321     0.000000010740     0.00050   0.00054   0.00000
  183    0a ->  245a      4560.407     0.000000122644    -0.00169   0.00184   0.00000
  184    0a ->  246a      4560.509     0.000000368235     0.00000  -0.00000   0.00433
  185    0a ->  247a      4562.507     0.000000000000     0.00000   0.00000  -0.00000
  186    0a ->  248a      4562.998     0.000000000000    -0.00000  -0.00000   0.00000
  187    0a ->  249a      4563.268     0.000000000000    -0.00000   0.00000   0.00000
  188    0a ->  250a      4803.161     0.000000000000     0.00000   0.00000  -0.00000
  189    0a ->  251a      5986.063     0.997273905238     6.10701   5.40586  -0.00000
  190    0a ->  252a      5988.088     0.999664416190     5.41324  -6.11537  -0.00000
  191    0a ->  253a      5988.384     1.000000000000    -0.00000   0.00000  -8.16864
  192    0a ->  254a      7696.636     0.000000007126     0.00051   0.00059   0.00000
  193    0a ->  255a      7697.582     0.000000271683    -0.00323   0.00359   0.00000
  194    0a ->  256a      7697.707     0.000000681559    -0.00000   0.00000  -0.00765
  195    0a ->  257a      7699.336     0.000000000000     0.00000   0.00000  -0.00000
  196    0a ->  258a      7699.689     0.000000000000     0.00000   0.00000  -0.00000
  197    0a ->  259a      7699.956     0.000000000000    -0.00000   0.00000   0.00000
  198    0a ->  260a      9437.072     0.000000000000     0.00000   0.00000  -0.00000
  199    0a ->  261a     28773.985     0.000000000322     0.00022   0.00023   0.00000
  200    0a ->  262a     28775.434     0.000000005587    -0.00090   0.00099   0.00000
  201    0a ->  263a     28775.656     0.000000015818    -0.00000   0.00000  -0.00225
  202    0a ->  264a     28778.152     0.000000000000     0.00000   0.00000  -0.00000
  203    0a ->  265a     28778.686     0.000000000000    -0.00000  -0.00000   0.00000
  204    0a ->  266a     28779.087     0.000000000000     0.00000  -0.00000  -0.00000
  205    0a ->  267a     40737.068     0.000000000000     0.00000   0.00000   0.00000



Timings for individual modules:

Sum of individual times         ...       15.241 sec (=   0.254 min)
GTO integral calculation        ...        5.381 sec (=   0.090 min)  35.3 %
Relativistic integrals          ...        1.070 sec (=   0.018 min)   7.0 %
SCF iterations                  ...        8.789 sec (=   0.146 min)  57.7 %
                             ****ORCA TERMINATED NORMALLY****
TOTAL RUN TIME: 0 days 0 hours 0 minutes 19 seconds 848 msec
`cl2_pc1_dbz.gbw' -> `/home1/mathe/CaCl2/dbz/qc1/cl2_pc1_dbz.gbw'
`cl2_pc1_dbz.job' -> `/home1/mathe/CaCl2/dbz/qc1/cl2_pc1_dbz.job'
`cl2_pc1_dbz.nodes' -> `/home1/mathe/CaCl2/dbz/qc1/cl2_pc1_dbz.nodes'
`cl2_pc1_dbz.prop' -> `/home1/mathe/CaCl2/dbz/qc1/cl2_pc1_dbz.prop'
`cl2_pc1_dbz_property.txt' -> `/home1/mathe/CaCl2/dbz/qc1/cl2_pc1_dbz_property.txt'
`pc.pc' -> `/home1/mathe/CaCl2/dbz/qc1/pc.pc'
